 DBCSR| CPU Multiplication driver                                           BLAS (U)
 DBCSR| Multrec recursion limit                                              512 (U)
 DBCSR| Multiplication stack size                                           1000 (D)
 DBCSR| Maximum elements for images                                    UNLIMITED (U)
 DBCSR| Multiplicative factor virtual images                                   1 (U)
 DBCSR| Use multiplication densification                                       T (D)
 DBCSR| Multiplication size stacks                                             3 (U)
 DBCSR| Use memory pool for CPU allocation                                     F (U)
 DBCSR| Number of 3D layers                                               SINGLE (U)
 DBCSR| Use MPI memory allocation                                              F (U)
 DBCSR| Use RMA algorithm                                                      F (U)
 DBCSR| Use Communication thread                                               T (U)
 DBCSR| Communication thread load                                             60 (D)
 DBCSR| MPI: My process id                                                     0
 DBCSR| MPI: Number of processes                                               1
 DBCSR| OMP: Current number of threads                                         8
 DBCSR| OMP: Max number of threads                                             8
 DBCSR| Split modifier for TAS multiplication algorithm                  1.0E+00 (U)


  **** **** ******  **  PROGRAM STARTED AT               2025-09-04 10:00:33.707
 ***** ** ***  *** **   PROGRAM STARTED ON        MacBook-Air-von-Michelle.local
 **    ****   ******    PROGRAM STARTED BY                              michelle
 ***** **    ** ** **   PROGRAM PROCESS ID                                 47418
  **** **  *******  **  PROGRAM STARTED IN /Users/michelle/Desktop/Work/Conferen
                                           ces_Talks/SCrS2025/CP2K_exercises

 CP2K| version string:                                       CP2K version 2025.1
 CP2K| source code revision number:                                             
 CP2K| cp2kflags: omp libint fftw3 libxc parallel scalapack no_statm_access     
 CP2K| is freely available from                            https://www.cp2k.org/
 CP2K| Program compiled at                                   2025-01-01 12:26:53
 CP2K| Program compiled on                                                      
 CP2K| Program compiled for                                                arm64
 CP2K| Data directory path      /opt/homebrew/Cellar/cp2k/2025.1/share/cp2k/data
 CP2K| Input file name                                             water_xtb.inp

 GLOBAL| Force Environment number                                              1
 GLOBAL| Basis set file name                                           BASIS_SET
 GLOBAL| Potential file name                                           POTENTIAL
 GLOBAL| MM Potential file name                                     MM_POTENTIAL
 GLOBAL| Coordinate file name                                          water.xyz
 GLOBAL| Method name                                                        CP2K
 GLOBAL| Project name                                                  water_xtb
 GLOBAL| Run type                                                             MD
 GLOBAL| FFT library                                                       FFTW3
 GLOBAL| Diagonalization library                                       ScaLAPACK
 GLOBAL| DGEMM library                                                      BLAS
 GLOBAL| Orthonormality check for eigenvectors                          DISABLED
 GLOBAL| Matrix multiplication library                                 ScaLAPACK
 GLOBAL| All-to-all communication in single precision                          F
 GLOBAL| FFTs using library dependent lengths                                  F
 GLOBAL| Grid backend                                                       AUTO
 GLOBAL| Global print level                                                  LOW
 GLOBAL| MPI I/O enabled                                                       T
 GLOBAL| Total number of message passing processes                             1
 GLOBAL| Number of threads for this process                                    8
 GLOBAL| This output is from process                                           0
 GLOBAL| OpenMP stack size per thread (OMP_STACKSIZE)                    default
 GLOBAL| CPU model name                                                  UNKNOWN
 GLOBAL| CPUID                                                              2000

 MEMORY| system memory details [Kb]
 MEMORY|                        rank 0           min           max       average
 MEMORY| MemTotal                    0             0             0             0
 MEMORY| MemFree                     0             0             0             0
 MEMORY| Buffers                     0             0             0             0
 MEMORY| Cached                      0             0             0             0
 MEMORY| Slab                        0             0             0             0
 MEMORY| SReclaimable                0             0             0             0
 MEMORY| MemLikelyFree               0             0             0             0


 GENERATE|  Preliminary Number of Bonds generated:                             0
 GENERATE|  Achieved consistency in connectivity generation.

 *** WARNING in qs_kind_types.F:2201 :: Information provided in the input ***
 *** file regarding POTENTIAL for KIND <O> will be ignored!               ***


 *** WARNING in qs_kind_types.F:2207 :: Information provided in the input ***
 *** file regarding BASIS for KIND <O> will be ignored!                   ***


 *** WARNING in qs_kind_types.F:2201 :: Information provided in the input ***
 *** file regarding POTENTIAL for KIND <H> will be ignored!               ***


 *** WARNING in qs_kind_types.F:2207 :: Information provided in the input ***
 *** file regarding BASIS for KIND <H> will be ignored!                   ***



                  #####   #####        #          ####### ######   
                 #     # #     #      #              #    #     #  
                 #     # #           #    ##   ##    #    #     #  
                 #     #  #####     #      ## ##     #    ######   
                 #   # #       #   #        ###      #    #     #  
                 #    #  #     #  #        ## ##     #    #     #  
                  #### #  #####  #        ##   ##    #    ######   

                                   GFN1-xTB 
                                 Version 1.1                       
                            J. Hutter and A. Hehn                  


 EWALD| Summation is done by:                                               SPME
 EWALD| Alpha parameter [       ANGSTROM^-1]                              1.8897
 EWALD| Real Space Cutoff [          ANGSTROM]                            1.7854
 EWALD| G-space max. Miller index                         75        75        75
 EWALD| Spline interpolation order                                             6


 TOTAL NUMBERS AND MAXIMUM NUMBERS

  Total number of            - Atomic kinds:                                   2
                             - Atoms:                                        192
                             - Shell sets:                                   384
                             - Shells:                                       384
                             - Primitive Cartesian functions:               2816
                             - Cartesian basis functions:                    512
                             - Spherical basis functions:                    512

  Maximum angular momentum of the orbital basis functions:                     1


 SCF PARAMETERS         Density guess:                                   RESTART
                        --------------------------------------------------------
                        max_scf:                                              40
                        max_scf_history:                                       0
                        max_diis:                                              4
                        --------------------------------------------------------
                        eps_scf:                                        1.00E-06
                        eps_scf_history:                                0.00E+00
                        eps_diis:                                       1.00E-01
                        eps_eigval:                                     1.00E-05
                        --------------------------------------------------------
                        level_shift [a.u.]:                             0.000000
                        --------------------------------------------------------
                        Outer loop SCF in use 
                        No variables optimised in outer loop
                        eps_scf                                         1.00E-06
                        max_scf                                               30
                        No outer loop optimization
                        step_size                                       5.00E-01

 MD_PAR| Molecular dynamics protocol (MD input parameters)
 MD_PAR| Ensemble type                                                       NVT
 MD_PAR| Number of time steps                                                100
 MD_PAR| Time step [fs]                                                 0.500000
 MD_PAR| Temperature [K]                                              300.000000
 MD_PAR| Temperature tolerance [K]                                      0.000000
 MD_PAR| Print MD information every                                    1 step(s)
 MD_PAR| File type   Print frequency [steps]                          File names
 MD_PAR| Coordinates          1                              water_xtb-pos-1.xyz
 MD_PAR| Velocities           1                              water_xtb-vel-1.xyz
 MD_PAR| Energies             1                                 water_xtb-1.ener
 MD_PAR| Dump                20                              water_xtb-1.restart

 ROT| Rotational analysis information
 ROT| Principal axes and moments of inertia [a.u.]
 ROT|                           1                   2                   3
 ROT| Eigenvalues      2.05585957588E+08   2.18420756715E+08   2.44815971865E+08
 ROT|      x              0.422535724749     -0.517084350433      0.744370429187
 ROT|      y              0.905625145748      0.208115968654     -0.369500796994
 ROT|      z              0.036147706690      0.830247865477      0.556221021872
 ROT| Number of rotovibrational vectors                                        6

 DOF| Calculation of degrees of freedom
 DOF| Number of atoms                                                        192
 DOF| Number of intramolecular constraints                                     0
 DOF| Number of intermolecular constraints                                     0
 DOF| Invariants (translations + rotations)                                    3
 DOF| Degrees of freedom                                                     573

 DOF| Restraints information
 DOF| Number of intramolecular restraints                                      0
 DOF| Number of intermolecular restraints                                      0

 THERMOSTAT| Thermostat information for PARTICLES
 THERMOSTAT| Type of thermostat            Canonical Sampling/Velocity Rescaling
 THERMOSTAT| CSVR time constant [fs]                                  200.000000
 THERMOSTAT| Initial kinetic energy                           0.000000000000E+00
 THERMOSTAT| End of thermostat information for PARTICLES

 MD_VEL| Velocities initialization
 MD_VEL| Initial temperature [K]                                      300.000000
 MD_VEL| COM velocity             0.0000000000    -0.0000000000     0.0000000000

 Number of electrons:                                                        512
 Number of occupied orbitals:                                                256
 Number of molecular orbitals:                                               256

 Number of orbital functions:                                                512
 Number of independent orbital functions:                                    512

 Extrapolation method: initial_guess

 *** WARNING in qs_initial_guess.F:303 :: User requested to restart the   ***
 *** wavefunction from the file named: water_xtb-RESTART.wfn. This file   ***
 *** does not exist. Please check the existence of the file or change     ***
 *** properly the value of the keyword WFN_RESTART_FILE_NAME. Calculation ***
 *** continues using ATOMIC GUESS.                                        ***



 SCF WAVEFUNCTION OPTIMIZATION

  ----------------------------------- OT ---------------------------------------
  Minimizer      : DIIS                : direct inversion
                                         in the iterative subspace
                                         using   7 DIIS vectors
                                         safer DIIS on
  Preconditioner : FULL_SINGLE_INVERSE : inversion of 
                                         H + eS - 2*(Sc)(c^T*H*c+const)(Sc)^T
  Precond_solver : DEFAULT
  stepsize       :    0.08000000                  energy_gap     :    0.08000000
  eps_taylor     :   0.10000E-15                  max_taylor     :             4
  ----------------------------------- OT ---------------------------------------

  Step     Update method      Time    Convergence         Total energy    Change
  ------------------------------------------------------------------------------
     1 OT DIIS     0.80E-01    0.6     0.01642440      -367.9821563493 -3.68E+02
     2 OT DIIS     0.80E-01    0.2     0.00634473      -369.9394003107 -1.96E+00
     3 OT DIIS     0.80E-01    0.3     0.00107979      -370.2874041194 -3.48E-01
     4 OT DIIS     0.80E-01    0.3     0.00031263      -370.2984980330 -1.11E-02
     5 OT DIIS     0.80E-01    0.3     0.00013400      -370.2992467655 -7.49E-04
     6 OT DIIS     0.80E-01    0.3     0.00004066      -370.2994046412 -1.58E-04
     7 OT DIIS     0.80E-01    0.3     0.00000511      -370.2994193028 -1.47E-05
     8 OT DIIS     0.80E-01    0.3     0.00000175      -370.2994196047 -3.02E-07
     9 OT DIIS     0.80E-01    0.3     0.00000064      -370.2994196358 -3.11E-08

  *** SCF run converged in     9 steps ***


  Core Hamiltonian energy:                                   -375.05296688947607
  Repulsive potential energy:                                   1.96087228908692
  Electronic energy:                                            2.95390164955703
  DFTB3 3rd order energy:                                       0.00398612190425
  Dispersion energy:                                           -0.16521280684761
  Correction for halogen bonding:                               0.00000000000000

  Total energy:                                              -370.29941963577545

  outer SCF iter =    1 RMS gradient =   0.64E-06 energy =       -370.2994196358
  outer SCF loop converged in   1 iterations or    9 steps


 ENERGY| Total FORCE_EVAL ( QS ) energy [hartree]           -370.299419640270401

 MD_INI| MD initialization
 MD_INI| Potential energy [hartree]                          -0.370299419640E+03
 MD_INI| Kinetic energy [hartree]                             0.272187778755E+00
 MD_INI| Temperature [K]                                              300.000000
 MD_INI| Cell volume [bohr^3]                                 1.292889458088E+04
 MD_INI| Cell volume [ang^3]                                  1.915864488000E+03
 MD_INI| Cell lengths [bohr]      2.34703986E+01  2.34703986E+01  2.34703986E+01
 MD_INI| Cell lengths [ang]       1.24200000E+01  1.24200000E+01  1.24200000E+01
 MD_INI| Cell angles [deg]        9.00000000E+01  9.00000000E+01  9.00000000E+01

 Number of electrons:                                                        512
 Number of occupied orbitals:                                                256
 Number of molecular orbitals:                                               256

 Number of orbital functions:                                                512
 Number of independent orbital functions:                                    512

 Extrapolation method: ASPC


 SCF WAVEFUNCTION OPTIMIZATION

  ----------------------------------- OT ---------------------------------------
  Minimizer      : DIIS                : direct inversion
                                         in the iterative subspace
                                         using   7 DIIS vectors
                                         safer DIIS on
  Preconditioner : FULL_SINGLE_INVERSE : inversion of 
                                         H + eS - 2*(Sc)(c^T*H*c+const)(Sc)^T
  Precond_solver : DEFAULT
  stepsize       :    0.08000000                  energy_gap     :    0.08000000
  eps_taylor     :   0.10000E-15                  max_taylor     :             4
  ----------------------------------- OT ---------------------------------------

  Step     Update method      Time    Convergence         Total energy    Change
  ------------------------------------------------------------------------------
     1 OT DIIS     0.80E-01    0.5     0.00039268      -370.2983328307 -3.70E+02
     2 OT DIIS     0.80E-01    0.2     0.00027229      -370.2997008029 -1.37E-03
     3 OT DIIS     0.80E-01    0.2     0.00002772      -370.3009802394 -1.28E-03
     4 OT DIIS     0.80E-01    0.2     0.00000852      -370.3009898645 -9.63E-06
     5 OT DIIS     0.80E-01    0.2     0.00000153      -370.3009910341 -1.17E-06
     6 OT DIIS     0.80E-01    0.2     0.00000065      -370.3009910661 -3.20E-08

  *** SCF run converged in     6 steps ***


  Core Hamiltonian energy:                                   -375.05293251593241
  Repulsive potential energy:                                   1.95896554515527
  Electronic energy:                                            2.95420749786927
  DFTB3 3rd order energy:                                       0.00398449826275
  Dispersion energy:                                           -0.16521609144552
  Correction for halogen bonding:                               0.00000000000000

  Total energy:                                              -370.30099106609066

  outer SCF iter =    1 RMS gradient =   0.65E-06 energy =       -370.3009910661
  outer SCF loop converged in   1 iterations or    6 steps


 ENERGY| Total FORCE_EVAL ( QS ) energy [hartree]           -370.300991072715874

 MD| ***************************************************************************
 MD| Step number                                                               1
 MD| Time [fs]                                                          0.500000
 MD| Conserved quantity [hartree]                            -0.370027287924E+03
 MD| ---------------------------------------------------------------------------
 MD|                                          Instantaneous             Averages
 MD| CPU time per MD step [s]                      5.153177             5.153177
 MD| Energy drift per atom [K]          -0.922036954099E-01   0.000000000000E+00
 MD| Potential energy [hartree]         -0.370300991073E+03  -0.370300991073E+03
 MD| Kinetic energy [hartree]            0.271731040912E+00   0.271731040912E+00
 MD| Temperature [K]                             299.496593           299.496593
 MD| ***************************************************************************

 Number of electrons:                                                        512
 Number of occupied orbitals:                                                256
 Number of molecular orbitals:                                               256

 Number of orbital functions:                                                512
 Number of independent orbital functions:                                    512

 Extrapolation method: ASPC


 SCF WAVEFUNCTION OPTIMIZATION

  ----------------------------------- OT ---------------------------------------
  Minimizer      : DIIS                : direct inversion
                                         in the iterative subspace
                                         using   7 DIIS vectors
                                         safer DIIS on
  Preconditioner : FULL_SINGLE_INVERSE : inversion of 
                                         H + eS - 2*(Sc)(c^T*H*c+const)(Sc)^T
  Precond_solver : DEFAULT
  stepsize       :    0.08000000                  energy_gap     :    0.08000000
  eps_taylor     :   0.10000E-15                  max_taylor     :             4
  ----------------------------------- OT ---------------------------------------

  Step     Update method      Time    Convergence         Total energy    Change
  ------------------------------------------------------------------------------
     1 OT DIIS     0.80E-01    0.5     0.00007629      -370.3029827110 -3.70E+02
     2 OT DIIS     0.80E-01    0.2     0.00005145      -370.3030337204 -5.10E-05
     3 OT DIIS     0.80E-01    0.2     0.00000740      -370.3030770829 -4.34E-05
     4 OT DIIS     0.80E-01    0.2     0.00000196      -370.3030778007 -7.18E-07
     5 OT DIIS     0.80E-01    0.2     0.00000037      -370.3030778632 -6.25E-08

  *** SCF run converged in     5 steps ***


  Core Hamiltonian energy:                                   -375.07083576555573
  Repulsive potential energy:                                   1.97669920961575
  Electronic energy:                                            2.95229157502216
  DFTB3 3rd order energy:                                       0.00398417786857
  Dispersion energy:                                           -0.16521706013187
  Correction for halogen bonding:                               0.00000000000000

  Total energy:                                              -370.30307786318110

  outer SCF iter =    1 RMS gradient =   0.37E-06 energy =       -370.3030778632
  outer SCF loop converged in   1 iterations or    5 steps


 ENERGY| Total FORCE_EVAL ( QS ) energy [hartree]           -370.303077865230364

 MD| ***************************************************************************
 MD| Step number                                                               2
 MD| Time [fs]                                                          1.000000
 MD| Conserved quantity [hartree]                            -0.370027349534E+03
 MD| ---------------------------------------------------------------------------
 MD|                                          Instantaneous             Averages
 MD| CPU time per MD step [s]                      1.804661             3.478919
 MD| Energy drift per atom [K]          -0.193531298728E+00  -0.967656493642E-01
 MD| Potential energy [hartree]         -0.370303077865E+03  -0.370302034469E+03
 MD| Kinetic energy [hartree]            0.275929757617E+00   0.273830399264E+00
 MD| Temperature [K]                             304.124335           301.810464
 MD| ***************************************************************************

 Number of electrons:                                                        512
 Number of occupied orbitals:                                                256
 Number of molecular orbitals:                                               256

 Number of orbital functions:                                                512
 Number of independent orbital functions:                                    512

 Extrapolation method: ASPC


 SCF WAVEFUNCTION OPTIMIZATION

  ----------------------------------- OT ---------------------------------------
  Minimizer      : DIIS                : direct inversion
                                         in the iterative subspace
                                         using   7 DIIS vectors
                                         safer DIIS on
  Preconditioner : FULL_SINGLE_INVERSE : inversion of 
                                         H + eS - 2*(Sc)(c^T*H*c+const)(Sc)^T
  Precond_solver : DEFAULT
  stepsize       :    0.08000000                  energy_gap     :    0.08000000
  eps_taylor     :   0.10000E-15                  max_taylor     :             4
  ----------------------------------- OT ---------------------------------------

  Step     Update method      Time    Convergence         Total energy    Change
  ------------------------------------------------------------------------------
     1 OT DIIS     0.80E-01    0.5     0.00004121      -370.3046955601 -3.70E+02
     2 OT DIIS     0.80E-01    0.2     0.00002774      -370.3047104295 -1.49E-05
     3 OT DIIS     0.80E-01    0.2     0.00000399      -370.3047229904 -1.26E-05
     4 OT DIIS     0.80E-01    0.2     0.00000106      -370.3047231988 -2.08E-07
     5 OT DIIS     0.80E-01    0.2     0.00000020      -370.3047232172 -1.84E-08

  *** SCF run converged in     5 steps ***


  Core Hamiltonian energy:                                   -375.10502969956121
  Repulsive potential energy:                                   2.01304501183331
  Electronic energy:                                            2.94849296641379
  DFTB3 3rd order energy:                                       0.00398538278690
  Dispersion energy:                                           -0.16521687867405
  Correction for halogen bonding:                               0.00000000000000

  Total energy:                                              -370.30472321720134

  outer SCF iter =    1 RMS gradient =   0.20E-06 energy =       -370.3047232172
  outer SCF loop converged in   1 iterations or    5 steps


 ENERGY| Total FORCE_EVAL ( QS ) energy [hartree]           -370.304723217792912

 MD| ***************************************************************************
 MD| Step number                                                               3
 MD| Time [fs]                                                          1.500000
 MD| Conserved quantity [hartree]                            -0.370027420934E+03
 MD| ---------------------------------------------------------------------------
 MD|                                          Instantaneous             Averages
 MD| CPU time per MD step [s]                      1.847398             2.935079
 MD| Energy drift per atom [K]          -0.310960304748E+00  -0.168163867826E+00
 MD| Potential energy [hartree]         -0.370304723218E+03  -0.370302930719E+03
 MD| Kinetic energy [hartree]            0.279025529150E+00   0.275562109226E+00
 MD| Temperature [K]                             307.536434           303.719120
 MD| ***************************************************************************

 Number of electrons:                                                        512
 Number of occupied orbitals:                                                256
 Number of molecular orbitals:                                               256

 Number of orbital functions:                                                512
 Number of independent orbital functions:                                    512

 Extrapolation method: ASPC


 SCF WAVEFUNCTION OPTIMIZATION

  ----------------------------------- OT ---------------------------------------
  Minimizer      : DIIS                : direct inversion
                                         in the iterative subspace
                                         using   7 DIIS vectors
                                         safer DIIS on
  Preconditioner : FULL_SINGLE_INVERSE : inversion of 
                                         H + eS - 2*(Sc)(c^T*H*c+const)(Sc)^T
  Precond_solver : DEFAULT
  stepsize       :    0.08000000                  energy_gap     :    0.08000000
  eps_taylor     :   0.10000E-15                  max_taylor     :             4
  ----------------------------------- OT ---------------------------------------

  Step     Update method      Time    Convergence         Total energy    Change
  ------------------------------------------------------------------------------
     1 OT DIIS     0.80E-01    0.5     0.00003213      -370.3049057977 -3.70E+02
     2 OT DIIS     0.80E-01    0.2     0.00002163      -370.3049148371 -9.04E-06
     3 OT DIIS     0.80E-01    0.2     0.00000305      -370.3049224799 -7.64E-06
     4 OT DIIS     0.80E-01    0.2     0.00000080      -370.3049226007 -1.21E-07

  *** SCF run converged in     4 steps ***


  Core Hamiltonian energy:                                   -375.15194380265683
  Repulsive potential energy:                                   2.06508642617986
  Electronic energy:                                            2.94316357153351
  DFTB3 3rd order energy:                                       0.00398776333937
  Dispersion energy:                                           -0.16521655906942
  Correction for halogen bonding:                               0.00000000000000

  Total energy:                                              -370.30492260067354

  outer SCF iter =    1 RMS gradient =   0.80E-06 energy =       -370.3049226007
  outer SCF loop converged in   1 iterations or    4 steps


 ENERGY| Total FORCE_EVAL ( QS ) energy [hartree]           -370.304922611177233

 MD| ***************************************************************************
 MD| Step number                                                               4
 MD| Time [fs]                                                          2.000000
 MD| Conserved quantity [hartree]                            -0.370027485107E+03
 MD| ---------------------------------------------------------------------------
 MD|                                          Instantaneous             Averages
 MD| CPU time per MD step [s]                      1.634118             2.609839
 MD| Energy drift per atom [K]          -0.416502861442E+00  -0.230248616230E+00
 MD| Potential energy [hartree]         -0.370304922611E+03  -0.370303428692E+03
 MD| Kinetic energy [hartree]            0.278009317748E+00   0.276173911357E+00
 MD| Temperature [K]                             306.416385           304.393437
 MD| ***************************************************************************

 Number of electrons:                                                        512
 Number of occupied orbitals:                                                256
 Number of molecular orbitals:                                               256

 Number of orbital functions:                                                512
 Number of independent orbital functions:                                    512

 Extrapolation method: ASPC


 SCF WAVEFUNCTION OPTIMIZATION

  ----------------------------------- OT ---------------------------------------
  Minimizer      : DIIS                : direct inversion
                                         in the iterative subspace
                                         using   7 DIIS vectors
                                         safer DIIS on
  Preconditioner : FULL_SINGLE_INVERSE : inversion of 
                                         H + eS - 2*(Sc)(c^T*H*c+const)(Sc)^T
  Precond_solver : DEFAULT
  stepsize       :    0.08000000                  energy_gap     :    0.08000000
  eps_taylor     :   0.10000E-15                  max_taylor     :             4
  ----------------------------------- OT ---------------------------------------

  Step     Update method      Time    Convergence         Total energy    Change
  ------------------------------------------------------------------------------
     1 OT DIIS     0.80E-01    0.5     0.00002892      -370.3029429484 -3.70E+02
     2 OT DIIS     0.80E-01    0.2     0.00001952      -370.3029502813 -7.33E-06
     3 OT DIIS     0.80E-01    0.2     0.00000267      -370.3029565312 -6.25E-06
     4 OT DIIS     0.80E-01    0.2     0.00000073      -370.3029566235 -9.23E-08

  *** SCF run converged in     4 steps ***


  Core Hamiltonian energy:                                   -375.20650138346815
  Repulsive potential energy:                                   2.12792816670270
  Electronic energy:                                            2.93684224278209
  DFTB3 3rd order energy:                                       0.00399078596312
  Dispersion energy:                                           -0.16521643550080
  Correction for halogen bonding:                               0.00000000000000

  Total energy:                                              -370.30295662352103

  outer SCF iter =    1 RMS gradient =   0.73E-06 energy =       -370.3029566235
  outer SCF loop converged in   1 iterations or    4 steps


 ENERGY| Total FORCE_EVAL ( QS ) energy [hartree]           -370.302956632100688

 MD| ***************************************************************************
 MD| Step number                                                               5
 MD| Time [fs]                                                          2.500000
 MD| Conserved quantity [hartree]                            -0.370027512192E+03
 MD| ---------------------------------------------------------------------------
 MD|                                          Instantaneous             Averages
 MD| CPU time per MD step [s]                      1.693567             2.426584
 MD| Energy drift per atom [K]          -0.461047818282E+00  -0.276408456640E+00
 MD| Potential energy [hartree]         -0.370302956632E+03  -0.370303334280E+03
 MD| Kinetic energy [hartree]            0.274800077079E+00   0.275899144501E+00
 MD| Temperature [K]                             302.879224           304.090594
 MD| ***************************************************************************

 Number of electrons:                                                        512
 Number of occupied orbitals:                                                256
 Number of molecular orbitals:                                               256

 Number of orbital functions:                                                512
 Number of independent orbital functions:                                    512

 Extrapolation method: ASPC


 SCF WAVEFUNCTION OPTIMIZATION

  ----------------------------------- OT ---------------------------------------
  Minimizer      : DIIS                : direct inversion
                                         in the iterative subspace
                                         using   7 DIIS vectors
                                         safer DIIS on
  Preconditioner : FULL_SINGLE_INVERSE : inversion of 
                                         H + eS - 2*(Sc)(c^T*H*c+const)(Sc)^T
  Precond_solver : DEFAULT
  stepsize       :    0.08000000                  energy_gap     :    0.08000000
  eps_taylor     :   0.10000E-15                  max_taylor     :             4
  ----------------------------------- OT ---------------------------------------

  Step     Update method      Time    Convergence         Total energy    Change
  ------------------------------------------------------------------------------
     1 OT DIIS     0.80E-01    0.5     0.00002905      -370.2987810093 -3.70E+02
     2 OT DIIS     0.80E-01    0.2     0.00001963      -370.2987884134 -7.40E-06
     3 OT DIIS     0.80E-01    0.2     0.00000264      -370.2987947477 -6.33E-06
     4 OT DIIS     0.80E-01    0.2     0.00000070      -370.2987948369 -8.92E-08

  *** SCF run converged in     4 steps ***


  Core Hamiltonian energy:                                   -375.26302083079895
  Repulsive potential energy:                                   2.19525168569763
  Electronic energy:                                            2.93019636103627
  DFTB3 3rd order energy:                                       0.00399384821751
  Dispersion energy:                                           -0.16521590102914
  Correction for halogen bonding:                               0.00000000000000

  Total energy:                                              -370.29879483687665

  outer SCF iter =    1 RMS gradient =   0.70E-06 energy =       -370.2987948369
  outer SCF loop converged in   1 iterations or    4 steps


 ENERGY| Total FORCE_EVAL ( QS ) energy [hartree]           -370.298794844990766

 MD| ***************************************************************************
 MD| Step number                                                               6
 MD| Time [fs]                                                          3.000000
 MD| Conserved quantity [hartree]                            -0.370027473615E+03
 MD| ---------------------------------------------------------------------------
 MD|                                          Instantaneous             Averages
 MD| CPU time per MD step [s]                      1.690420             2.303890
 MD| Energy drift per atom [K]          -0.397602712101E+00  -0.296607499217E+00
 MD| Potential energy [hartree]         -0.370298794845E+03  -0.370302577707E+03
 MD| Kinetic energy [hartree]            0.269447654251E+00   0.274823896126E+00
 MD| Temperature [K]                             296.979889           302.905477
 MD| ***************************************************************************

 Number of electrons:                                                        512
 Number of occupied orbitals:                                                256
 Number of molecular orbitals:                                               256

 Number of orbital functions:                                                512
 Number of independent orbital functions:                                    512

 Extrapolation method: ASPC


 SCF WAVEFUNCTION OPTIMIZATION

  ----------------------------------- OT ---------------------------------------
  Minimizer      : DIIS                : direct inversion
                                         in the iterative subspace
                                         using   7 DIIS vectors
                                         safer DIIS on
  Preconditioner : FULL_SINGLE_INVERSE : inversion of 
                                         H + eS - 2*(Sc)(c^T*H*c+const)(Sc)^T
  Precond_solver : DEFAULT
  stepsize       :    0.08000000                  energy_gap     :    0.08000000
  eps_taylor     :   0.10000E-15                  max_taylor     :             4
  ----------------------------------- OT ---------------------------------------

  Step     Update method      Time    Convergence         Total energy    Change
  ------------------------------------------------------------------------------
     1 OT DIIS     0.80E-01    0.5     0.00003066      -370.2933883662 -3.70E+02
     2 OT DIIS     0.80E-01    0.2     0.00002076      -370.2933966201 -8.25E-06
     3 OT DIIS     0.80E-01    0.2     0.00000276      -370.2934037203 -7.10E-06
     4 OT DIIS     0.80E-01    0.2     0.00000072      -370.2934038178 -9.75E-08

  *** SCF run converged in     4 steps ***


  Core Hamiltonian energy:                                   -375.31553273850756
  Repulsive potential energy:                                   2.25942082284596
  Electronic energy:                                            2.92392671369388
  DFTB3 3rd order energy:                                       0.00399618601816
  Dispersion energy:                                           -0.16521480187874
  Correction for halogen bonding:                               0.00000000000000

  Total energy:                                              -370.29340381782822

  outer SCF iter =    1 RMS gradient =   0.72E-06 energy =       -370.2934038178
  outer SCF loop converged in   1 iterations or    4 steps


 ENERGY| Total FORCE_EVAL ( QS ) energy [hartree]           -370.293403826315341

 MD| ***************************************************************************
 MD| Step number                                                               7
 MD| Time [fs]                                                          3.500000
 MD| Conserved quantity [hartree]                            -0.370027364908E+03
 MD| ---------------------------------------------------------------------------
 MD|                                          Instantaneous             Averages
 MD| CPU time per MD step [s]                      1.683902             2.215320
 MD| Energy drift per atom [K]          -0.218815900131E+00  -0.285494413633E+00
 MD| Potential energy [hartree]         -0.370293403826E+03  -0.370301267153E+03
 MD| Kinetic energy [hartree]            0.264685565453E+00   0.273375563173E+00
 MD| Temperature [K]                             291.731209           301.309153
 MD| ***************************************************************************

 Number of electrons:                                                        512
 Number of occupied orbitals:                                                256
 Number of molecular orbitals:                                               256

 Number of orbital functions:                                                512
 Number of independent orbital functions:                                    512

 Extrapolation method: ASPC


 SCF WAVEFUNCTION OPTIMIZATION

  ----------------------------------- OT ---------------------------------------
  Minimizer      : DIIS                : direct inversion
                                         in the iterative subspace
                                         using   7 DIIS vectors
                                         safer DIIS on
  Preconditioner : FULL_SINGLE_INVERSE : inversion of 
                                         H + eS - 2*(Sc)(c^T*H*c+const)(Sc)^T
  Precond_solver : DEFAULT
  stepsize       :    0.08000000                  energy_gap     :    0.08000000
  eps_taylor     :   0.10000E-15                  max_taylor     :             4
  ----------------------------------- OT ---------------------------------------

  Step     Update method      Time    Convergence         Total energy    Change
  ------------------------------------------------------------------------------
     1 OT DIIS     0.80E-01    0.5     0.00003173      -370.2886709623 -3.70E+02
     2 OT DIIS     0.80E-01    0.2     0.00002148      -370.2886798009 -8.84E-06
     3 OT DIIS     0.80E-01    0.2     0.00000283      -370.2886874095 -7.61E-06
     4 OT DIIS     0.80E-01    0.2     0.00000073      -370.2886875118 -1.02E-07

  *** SCF run converged in     4 steps ***


  Core Hamiltonian energy:                                   -375.35855396959175
  Repulsive potential energy:                                   2.31237417033780
  Electronic energy:                                            2.91870811822953
  DFTB3 3rd order energy:                                       0.00399704933922
  Dispersion energy:                                           -0.16521288010283
  Correction for halogen bonding:                               0.00000000000000

  Total energy:                                              -370.28868751178805

  outer SCF iter =    1 RMS gradient =   0.73E-06 energy =       -370.2886875118
  outer SCF loop converged in   1 iterations or    4 steps


 ENERGY| Total FORCE_EVAL ( QS ) energy [hartree]           -370.288687520488281

 MD| ***************************************************************************
 MD| Step number                                                               8
 MD| Time [fs]                                                          4.000000
 MD| Conserved quantity [hartree]                            -0.370027240929E+03
 MD| ---------------------------------------------------------------------------
 MD|                                          Instantaneous             Averages
 MD| CPU time per MD step [s]                      1.729137             2.154548
 MD| Energy drift per atom [K]          -0.149133256623E-01  -0.251671777637E+00
 MD| Potential energy [hartree]         -0.370288687520E+03  -0.370299694699E+03
 MD| Kinetic energy [hartree]            0.260182073871E+00   0.271726377010E+00
 MD| Temperature [K]                             286.767549           299.491452
 MD| ***************************************************************************

 Number of electrons:                                                        512
 Number of occupied orbitals:                                                256
 Number of molecular orbitals:                                               256

 Number of orbital functions:                                                512
 Number of independent orbital functions:                                    512

 Extrapolation method: ASPC


 SCF WAVEFUNCTION OPTIMIZATION

  ----------------------------------- OT ---------------------------------------
  Minimizer      : DIIS                : direct inversion
                                         in the iterative subspace
                                         using   7 DIIS vectors
                                         safer DIIS on
  Preconditioner : FULL_SINGLE_INVERSE : inversion of 
                                         H + eS - 2*(Sc)(c^T*H*c+const)(Sc)^T
  Precond_solver : DEFAULT
  stepsize       :    0.08000000                  energy_gap     :    0.08000000
  eps_taylor     :   0.10000E-15                  max_taylor     :             4
  ----------------------------------- OT ---------------------------------------

  Step     Update method      Time    Convergence         Total energy    Change
  ------------------------------------------------------------------------------
     1 OT DIIS     0.80E-01    0.5     0.00003231      -370.2865581060 -3.70E+02
     2 OT DIIS     0.80E-01    0.2     0.00002188      -370.2865672723 -9.17E-06
     3 OT DIIS     0.80E-01    0.2     0.00000282      -370.2865751671 -7.89E-06
     4 OT DIIS     0.80E-01    0.2     0.00000073      -370.2865752681 -1.01E-07

  *** SCF run converged in     4 steps ***


  Core Hamiltonian energy:                                   -375.38762567638167
  Repulsive potential energy:                                   2.34715340241698
  Electronic energy:                                            2.91511199954387
  DFTB3 3rd order energy:                                       0.00399586396395
  Dispersion energy:                                           -0.16521085766155
  Correction for halogen bonding:                               0.00000000000000

  Total energy:                                              -370.28657526811838

  outer SCF iter =    1 RMS gradient =   0.73E-06 energy =       -370.2865752681
  outer SCF loop converged in   1 iterations or    4 steps


 ENERGY| Total FORCE_EVAL ( QS ) energy [hartree]           -370.286575277009433

 MD| ***************************************************************************
 MD| Step number                                                               9
 MD| Time [fs]                                                          4.500000
 MD| Conserved quantity [hartree]                            -0.370027201702E+03
 MD| ---------------------------------------------------------------------------
 MD|                                          Instantaneous             Averages
 MD| CPU time per MD step [s]                      1.704662             2.104560
 MD| Energy drift per atom [K]           0.496026355710E-01  -0.218196842836E+00
 MD| Potential energy [hartree]         -0.370286575277E+03  -0.370298236985E+03
 MD| Kinetic energy [hartree]            0.258031155752E+00   0.270204685759E+00
 MD| Temperature [K]                             284.396849           297.814274
 MD| ***************************************************************************

 Number of electrons:                                                        512
 Number of occupied orbitals:                                                256
 Number of molecular orbitals:                                               256

 Number of orbital functions:                                                512
 Number of independent orbital functions:                                    512

 Extrapolation method: ASPC


 SCF WAVEFUNCTION OPTIMIZATION

  ----------------------------------- OT ---------------------------------------
  Minimizer      : DIIS                : direct inversion
                                         in the iterative subspace
                                         using   7 DIIS vectors
                                         safer DIIS on
  Preconditioner : FULL_SINGLE_INVERSE : inversion of 
                                         H + eS - 2*(Sc)(c^T*H*c+const)(Sc)^T
  Precond_solver : DEFAULT
  stepsize       :    0.08000000                  energy_gap     :    0.08000000
  eps_taylor     :   0.10000E-15                  max_taylor     :             4
  ----------------------------------- OT ---------------------------------------

  Step     Update method      Time    Convergence         Total energy    Change
  ------------------------------------------------------------------------------
     1 OT DIIS     0.80E-01    0.5     0.00003202      -370.2876358622 -3.70E+02
     2 OT DIIS     0.80E-01    0.2     0.00002171      -370.2876448711 -9.01E-06
     3 OT DIIS     0.80E-01    0.2     0.00000270      -370.2876526573 -7.79E-06
     4 OT DIIS     0.80E-01    0.2     0.00000073      -370.2876527500 -9.27E-08

  *** SCF run converged in     4 steps ***


  Core Hamiltonian energy:                                   -375.39960962200621
  Repulsive potential energy:                                   2.35962743248751
  Electronic energy:                                            2.91354655105223
  DFTB3 3rd order energy:                                       0.00399238718198
  Dispersion energy:                                           -0.16520949867900
  Correction for halogen bonding:                               0.00000000000000

  Total energy:                                              -370.28765274996351

  outer SCF iter =    1 RMS gradient =   0.73E-06 energy =       -370.2876527500
  outer SCF loop converged in   1 iterations or    4 steps


 ENERGY| Total FORCE_EVAL ( QS ) energy [hartree]           -370.287652758816762

 MD| ***************************************************************************
 MD| Step number                                                              10
 MD| Time [fs]                                                          5.000000
 MD| Conserved quantity [hartree]                            -0.370027305647E+03
 MD| ---------------------------------------------------------------------------
 MD|                                          Instantaneous             Averages
 MD| CPU time per MD step [s]                      1.688214             2.062926
 MD| Energy drift per atom [K]          -0.121351825518E+00  -0.208512341104E+00
 MD| Potential energy [hartree]         -0.370287652759E+03  -0.370297178563E+03
 MD| Kinetic energy [hartree]            0.258737492694E+00   0.269057966452E+00
 MD| Temperature [K]                             285.175360           296.550383
 MD| ***************************************************************************

 Number of electrons:                                                        512
 Number of occupied orbitals:                                                256
 Number of molecular orbitals:                                               256

 Number of orbital functions:                                                512
 Number of independent orbital functions:                                    512

 Extrapolation method: ASPC


 SCF WAVEFUNCTION OPTIMIZATION

  ----------------------------------- OT ---------------------------------------
  Minimizer      : DIIS                : direct inversion
                                         in the iterative subspace
                                         using   7 DIIS vectors
                                         safer DIIS on
  Preconditioner : FULL_SINGLE_INVERSE : inversion of 
                                         H + eS - 2*(Sc)(c^T*H*c+const)(Sc)^T
  Precond_solver : DEFAULT
  stepsize       :    0.08000000                  energy_gap     :    0.08000000
  eps_taylor     :   0.10000E-15                  max_taylor     :             4
  ----------------------------------- OT ---------------------------------------

  Step     Update method      Time    Convergence         Total energy    Change
  ------------------------------------------------------------------------------
     1 OT DIIS     0.80E-01    0.5     0.00002943      -370.2903505361 -3.70E+02
     2 OT DIIS     0.80E-01    0.2     0.00001997      -370.2903581477 -7.61E-06
     3 OT DIIS     0.80E-01    0.2     0.00000245      -370.2903647431 -6.60E-06
     4 OT DIIS     0.80E-01    0.2     0.00000068      -370.2903648197 -7.66E-08

  *** SCF run converged in     4 steps ***


  Core Hamiltonian energy:                                   -375.39337881163624
  Repulsive potential energy:                                   2.35008401271683
  Electronic energy:                                            2.91415284628939
  DFTB3 3rd order energy:                                       0.00398676117837
  Dispersion energy:                                           -0.16520962827541
  Correction for halogen bonding:                               0.00000000000000

  Total energy:                                              -370.29036481972713

  outer SCF iter =    1 RMS gradient =   0.68E-06 energy =       -370.2903648197
  outer SCF loop converged in   1 iterations or    4 steps


 ENERGY| Total FORCE_EVAL ( QS ) energy [hartree]           -370.290364827401788

 MD| ***************************************************************************
 MD| Step number                                                              11
 MD| Time [fs]                                                          5.500000
 MD| Conserved quantity [hartree]                            -0.370027502660E+03
 MD| ---------------------------------------------------------------------------
 MD|                                          Instantaneous             Averages
 MD| CPU time per MD step [s]                      1.705273             2.030412
 MD| Energy drift per atom [K]          -0.445370731687E+00  -0.230044922066E+00
 MD| Potential energy [hartree]         -0.370290364827E+03  -0.370296559132E+03
 MD| Kinetic energy [hartree]            0.261428757776E+00   0.268364402027E+00
 MD| Temperature [K]                             288.141619           295.785950
 MD| ***************************************************************************

 Number of electrons:                                                        512
 Number of occupied orbitals:                                                256
 Number of molecular orbitals:                                               256

 Number of orbital functions:                                                512
 Number of independent orbital functions:                                    512

 Extrapolation method: ASPC


 SCF WAVEFUNCTION OPTIMIZATION

  ----------------------------------- OT ---------------------------------------
  Minimizer      : DIIS                : direct inversion
                                         in the iterative subspace
                                         using   7 DIIS vectors
                                         safer DIIS on
  Preconditioner : FULL_SINGLE_INVERSE : inversion of 
                                         H + eS - 2*(Sc)(c^T*H*c+const)(Sc)^T
  Precond_solver : DEFAULT
  stepsize       :    0.08000000                  energy_gap     :    0.08000000
  eps_taylor     :   0.10000E-15                  max_taylor     :             4
  ----------------------------------- OT ---------------------------------------

  Step     Update method      Time    Convergence         Total energy    Change
  ------------------------------------------------------------------------------
     1 OT DIIS     0.80E-01    0.5     0.00002757      -370.2916765461 -3.70E+02
     2 OT DIIS     0.80E-01    0.2     0.00001872      -370.2916832274 -6.68E-06
     3 OT DIIS     0.80E-01    0.2     0.00000234      -370.2916890273 -5.80E-06
     4 OT DIIS     0.80E-01    0.2     0.00000065      -370.2916890977 -7.04E-08

  *** SCF run converged in     4 steps ***


  Core Hamiltonian energy:                                   -375.36967231669257
  Repulsive potential energy:                                   2.32238902575112
  Electronic energy:                                            2.91682669023658
  DFTB3 3rd order energy:                                       0.00397940550232
  Dispersion energy:                                           -0.16521190244843
  Correction for halogen bonding:                               0.00000000000000

  Total energy:                                              -370.29168909765099

  outer SCF iter =    1 RMS gradient =   0.65E-06 energy =       -370.2916890977
  outer SCF loop converged in   1 iterations or    4 steps


 ENERGY| Total FORCE_EVAL ( QS ) energy [hartree]           -370.291689104598674

 MD| ***************************************************************************
 MD| Step number                                                              12
 MD| Time [fs]                                                          6.000000
 MD| Conserved quantity [hartree]                            -0.370027666349E+03
 MD| ---------------------------------------------------------------------------
 MD|                                          Instantaneous             Averages
 MD| CPU time per MD step [s]                      1.754258             2.007399
 MD| Energy drift per atom [K]          -0.714584402733E+00  -0.270423212122E+00
 MD| Potential energy [hartree]         -0.370291689105E+03  -0.370296153297E+03
 MD| Kinetic energy [hartree]            0.264002277222E+00   0.268000891627E+00
 MD| Temperature [K]                             290.978102           295.385296
 MD| ***************************************************************************

 Number of electrons:                                                        512
 Number of occupied orbitals:                                                256
 Number of molecular orbitals:                                               256

 Number of orbital functions:                                                512
 Number of independent orbital functions:                                    512

 Extrapolation method: ASPC


 SCF WAVEFUNCTION OPTIMIZATION

  ----------------------------------- OT ---------------------------------------
  Minimizer      : DIIS                : direct inversion
                                         in the iterative subspace
                                         using   7 DIIS vectors
                                         safer DIIS on
  Preconditioner : FULL_SINGLE_INVERSE : inversion of 
                                         H + eS - 2*(Sc)(c^T*H*c+const)(Sc)^T
  Precond_solver : DEFAULT
  stepsize       :    0.08000000                  energy_gap     :    0.08000000
  eps_taylor     :   0.10000E-15                  max_taylor     :             4
  ----------------------------------- OT ---------------------------------------

  Step     Update method      Time    Convergence         Total energy    Change
  ------------------------------------------------------------------------------
     1 OT DIIS     0.80E-01    0.5     0.00002797      -370.2889747037 -3.70E+02
     2 OT DIIS     0.80E-01    0.2     0.00001895      -370.2889815735 -6.87E-06
     3 OT DIIS     0.80E-01    0.2     0.00000251      -370.2889875038 -5.93E-06
     4 OT DIIS     0.80E-01    0.2     0.00000067      -370.2889875844 -8.06E-08

  *** SCF run converged in     4 steps ***


  Core Hamiltonian energy:                                   -375.33102424568182
  Repulsive potential energy:                                   2.28202850154092
  Electronic energy:                                            2.92125384866192
  DFTB3 3rd order energy:                                       0.00397093226424
  Dispersion energy:                                           -0.16521662116431
  Correction for halogen bonding:                               0.00000000000000

  Total energy:                                              -370.28898758437902

  outer SCF iter =    1 RMS gradient =   0.67E-06 energy =       -370.2889875844
  outer SCF loop converged in   1 iterations or    4 steps


 ENERGY| Total FORCE_EVAL ( QS ) energy [hartree]           -370.288987591669525

 MD| ***************************************************************************
 MD| Step number                                                              13
 MD| Time [fs]                                                          6.500000
 MD| Conserved quantity [hartree]                            -0.370027685021E+03
 MD| ---------------------------------------------------------------------------
 MD|                                          Instantaneous             Averages
 MD| CPU time per MD step [s]                      1.712395             1.984706
 MD| Energy drift per atom [K]          -0.745293330572E+00  -0.306951682772E+00
 MD| Potential energy [hartree]         -0.370288987592E+03  -0.370295602088E+03
 MD| Kinetic energy [hartree]            0.260489536470E+00   0.267423095076E+00
 MD| Temperature [K]                             287.106428           294.748460
 MD| ***************************************************************************

 Number of electrons:                                                        512
 Number of occupied orbitals:                                                256
 Number of molecular orbitals:                                               256

 Number of orbital functions:                                                512
 Number of independent orbital functions:                                    512

 Extrapolation method: ASPC


 SCF WAVEFUNCTION OPTIMIZATION

  ----------------------------------- OT ---------------------------------------
  Minimizer      : DIIS                : direct inversion
                                         in the iterative subspace
                                         using   7 DIIS vectors
                                         safer DIIS on
  Preconditioner : FULL_SINGLE_INVERSE : inversion of 
                                         H + eS - 2*(Sc)(c^T*H*c+const)(Sc)^T
  Precond_solver : DEFAULT
  stepsize       :    0.08000000                  energy_gap     :    0.08000000
  eps_taylor     :   0.10000E-15                  max_taylor     :             4
  ----------------------------------- OT ---------------------------------------

  Step     Update method      Time    Convergence         Total energy    Change
  ------------------------------------------------------------------------------
     1 OT DIIS     0.80E-01    0.5     0.00002850      -370.2818277549 -3.70E+02
     2 OT DIIS     0.80E-01    0.2     0.00001925      -370.2818348763 -7.12E-06
     3 OT DIIS     0.80E-01    0.2     0.00000266      -370.2818409634 -6.09E-06
     4 OT DIIS     0.80E-01    0.2     0.00000069      -370.2818410543 -9.08E-08

  *** SCF run converged in     4 steps ***


  Core Hamiltonian energy:                                   -375.28157338234581
  Repulsive potential energy:                                   2.23403888336411
  Electronic energy:                                            2.92695509668221
  DFTB3 3rd order energy:                                       0.00396196790646
  Dispersion energy:                                           -0.16522361986633
  Correction for halogen bonding:                               0.00000000000000

  Total energy:                                              -370.28184105425936

  outer SCF iter =    1 RMS gradient =   0.69E-06 energy =       -370.2818410543
  outer SCF loop converged in   1 iterations or    4 steps


 ENERGY| Total FORCE_EVAL ( QS ) energy [hartree]           -370.281841061887462

 MD| ***************************************************************************
 MD| Step number                                                              14
 MD| Time [fs]                                                          7.000000
 MD| Conserved quantity [hartree]                            -0.370027536568E+03
 MD| ---------------------------------------------------------------------------
 MD|                                          Instantaneous             Averages
 MD| CPU time per MD step [s]                      1.692350             1.963824
 MD| Energy drift per atom [K]          -0.501138665413E+00  -0.320822181532E+00
 MD| Potential energy [hartree]         -0.370281841062E+03  -0.370294619158E+03
 MD| Kinetic energy [hartree]            0.252820417659E+00   0.266380046689E+00
 MD| Temperature [K]                             278.653677           293.598832
 MD| ***************************************************************************

 Number of electrons:                                                        512
 Number of occupied orbitals:                                                256
 Number of molecular orbitals:                                               256

 Number of orbital functions:                                                512
 Number of independent orbital functions:                                    512

 Extrapolation method: ASPC


 SCF WAVEFUNCTION OPTIMIZATION

  ----------------------------------- OT ---------------------------------------
  Minimizer      : DIIS                : direct inversion
                                         in the iterative subspace
                                         using   7 DIIS vectors
                                         safer DIIS on
  Preconditioner : FULL_SINGLE_INVERSE : inversion of 
                                         H + eS - 2*(Sc)(c^T*H*c+const)(Sc)^T
  Precond_solver : DEFAULT
  stepsize       :    0.08000000                  energy_gap     :    0.08000000
  eps_taylor     :   0.10000E-15                  max_taylor     :             4
  ----------------------------------- OT ---------------------------------------

  Step     Update method      Time    Convergence         Total energy    Change
  ------------------------------------------------------------------------------
     1 OT DIIS     0.80E-01    0.5     0.00002978      -370.2723573518 -3.70E+02
     2 OT DIIS     0.80E-01    0.2     0.00002006      -370.2723651193 -7.77E-06
     3 OT DIIS     0.80E-01    0.2     0.00000283      -370.2723716986 -6.58E-06
     4 OT DIIS     0.80E-01    0.2     0.00000072      -370.2723718013 -1.03E-07

  *** SCF run converged in     4 steps ***


  Core Hamiltonian energy:                                   -375.22644855873938
  Repulsive potential energy:                                   2.18198832412749
  Electronic energy:                                            2.93336804096843
  DFTB3 3rd order energy:                                       0.00395304470506
  Dispersion energy:                                           -0.16523265238232
  Correction for halogen bonding:                               0.00000000000000

  Total energy:                                              -370.27237180132073

  outer SCF iter =    1 RMS gradient =   0.72E-06 energy =       -370.2723718013
  outer SCF loop converged in   1 iterations or    4 steps


 ENERGY| Total FORCE_EVAL ( QS ) energy [hartree]           -370.272371809760330

 MD| ***************************************************************************
 MD| Step number                                                              15
 MD| Time [fs]                                                          7.500000
 MD| Conserved quantity [hartree]                            -0.370027306968E+03
 MD| ---------------------------------------------------------------------------
 MD|                                          Instantaneous             Averages
 MD| CPU time per MD step [s]                      1.699426             1.946197
 MD| Energy drift per atom [K]          -0.123525223686E+00  -0.307669051009E+00
 MD| Potential energy [hartree]         -0.370272371810E+03  -0.370293136001E+03
 MD| Kinetic energy [hartree]            0.245650636680E+00   0.264998086022E+00
 MD| Temperature [K]                             270.751286           292.075663
 MD| ***************************************************************************

 Number of electrons:                                                        512
 Number of occupied orbitals:                                                256
 Number of molecular orbitals:                                               256

 Number of orbital functions:                                                512
 Number of independent orbital functions:                                    512

 Extrapolation method: ASPC


 SCF WAVEFUNCTION OPTIMIZATION

  ----------------------------------- OT ---------------------------------------
  Minimizer      : DIIS                : direct inversion
                                         in the iterative subspace
                                         using   7 DIIS vectors
                                         safer DIIS on
  Preconditioner : FULL_SINGLE_INVERSE : inversion of 
                                         H + eS - 2*(Sc)(c^T*H*c+const)(Sc)^T
  Precond_solver : DEFAULT
  stepsize       :    0.08000000                  energy_gap     :    0.08000000
  eps_taylor     :   0.10000E-15                  max_taylor     :             4
  ----------------------------------- OT ---------------------------------------

  Step     Update method      Time    Convergence         Total energy    Change
  ------------------------------------------------------------------------------
     1 OT DIIS     0.80E-01    0.5     0.00003034      -370.2637987808 -3.70E+02
     2 OT DIIS     0.80E-01    0.2     0.00002041      -370.2638068403 -8.06E-06
     3 OT DIIS     0.80E-01    0.2     0.00000291      -370.2638136315 -6.79E-06
     4 OT DIIS     0.80E-01    0.2     0.00000075      -370.2638137406 -1.09E-07

  *** SCF run converged in     4 steps ***


  Core Hamiltonian energy:                                   -375.17098954739384
  Repulsive potential energy:                                   2.12855373920162
  Electronic energy:                                            2.93992052246876
  DFTB3 3rd order energy:                                       0.00394458698837
  Dispersion energy:                                           -0.16524304186604
  Correction for halogen bonding:                               0.00000000000000

  Total energy:                                              -370.26381374060117

  outer SCF iter =    1 RMS gradient =   0.75E-06 energy =       -370.2638137406
  outer SCF loop converged in   1 iterations or    4 steps


 ENERGY| Total FORCE_EVAL ( QS ) energy [hartree]           -370.263813749676103

 MD| ***************************************************************************
 MD| Step number                                                              16
 MD| Time [fs]                                                          8.000000
 MD| Conserved quantity [hartree]                            -0.370027131341E+03
 MD| ---------------------------------------------------------------------------
 MD|                                          Instantaneous             Averages
 MD| CPU time per MD step [s]                      1.719744             1.932044
 MD| Energy drift per atom [K]           0.165322167342E+00  -0.278107099862E+00
 MD| Potential energy [hartree]         -0.370263813750E+03  -0.370291303361E+03
 MD| Kinetic energy [hartree]            0.237628257088E+00   0.263287471714E+00
 MD| Temperature [K]                             261.909177           290.190257
 MD| ***************************************************************************

 Number of electrons:                                                        512
 Number of occupied orbitals:                                                256
 Number of molecular orbitals:                                               256

 Number of orbital functions:                                                512
 Number of independent orbital functions:                                    512

 Extrapolation method: ASPC


 SCF WAVEFUNCTION OPTIMIZATION

  ----------------------------------- OT ---------------------------------------
  Minimizer      : DIIS                : direct inversion
                                         in the iterative subspace
                                         using   7 DIIS vectors
                                         safer DIIS on
  Preconditioner : FULL_SINGLE_INVERSE : inversion of 
                                         H + eS - 2*(Sc)(c^T*H*c+const)(Sc)^T
  Precond_solver : DEFAULT
  stepsize       :    0.08000000                  energy_gap     :    0.08000000
  eps_taylor     :   0.10000E-15                  max_taylor     :             4
  ----------------------------------- OT ---------------------------------------

  Step     Update method      Time    Convergence         Total energy    Change
  ------------------------------------------------------------------------------
     1 OT DIIS     0.80E-01    0.5     0.00003093      -370.2586396414 -3.70E+02
     2 OT DIIS     0.80E-01    0.2     0.00002079      -370.2586480116 -8.37E-06
     3 OT DIIS     0.80E-01    0.2     0.00000303      -370.2586550559 -7.04E-06
     4 OT DIIS     0.80E-01    0.2     0.00000079      -370.2586551750 -1.19E-07

  *** SCF run converged in     4 steps ***


  Core Hamiltonian energy:                                   -375.12084060185441
  Repulsive potential energy:                                   2.07751309422027
  Electronic energy:                                            2.94598864685077
  DFTB3 3rd order energy:                                       0.00393705615256
  Dispersion energy:                                           -0.16525337033023
  Correction for halogen bonding:                               0.00000000000000

  Total energy:                                              -370.25865517496106

  outer SCF iter =    1 RMS gradient =   0.79E-06 energy =       -370.2586551750
  outer SCF loop converged in   1 iterations or    4 steps


 ENERGY| Total FORCE_EVAL ( QS ) energy [hartree]           -370.258655185011719

 MD| ***************************************************************************
 MD| Step number                                                              17
 MD| Time [fs]                                                          8.500000
 MD| Conserved quantity [hartree]                            -0.370027088074E+03
 MD| ---------------------------------------------------------------------------
 MD|                                          Instantaneous             Averages
 MD| CPU time per MD step [s]                      1.700015             1.918395
 MD| Energy drift per atom [K]           0.236482033420E+00  -0.247837150845E+00
 MD| Potential energy [hartree]         -0.370258655185E+03  -0.370289382880E+03
 MD| Kinetic energy [hartree]            0.232061655337E+00   0.261450658986E+00
 MD| Temperature [K]                             255.773778           288.165758
 MD| ***************************************************************************

 Number of electrons:                                                        512
 Number of occupied orbitals:                                                256
 Number of molecular orbitals:                                               256

 Number of orbital functions:                                                512
 Number of independent orbital functions:                                    512

 Extrapolation method: ASPC


 SCF WAVEFUNCTION OPTIMIZATION

  ----------------------------------- OT ---------------------------------------
  Minimizer      : DIIS                : direct inversion
                                         in the iterative subspace
                                         using   7 DIIS vectors
                                         safer DIIS on
  Preconditioner : FULL_SINGLE_INVERSE : inversion of 
                                         H + eS - 2*(Sc)(c^T*H*c+const)(Sc)^T
  Precond_solver : DEFAULT
  stepsize       :    0.08000000                  energy_gap     :    0.08000000
  eps_taylor     :   0.10000E-15                  max_taylor     :             4
  ----------------------------------- OT ---------------------------------------

  Step     Update method      Time    Convergence         Total energy    Change
  ------------------------------------------------------------------------------
     1 OT DIIS     0.80E-01    0.5     0.00002905      -370.2574517203 -3.70E+02
     2 OT DIIS     0.80E-01    0.2     0.00001954      -370.2574591050 -7.38E-06
     3 OT DIIS     0.80E-01    0.2     0.00000292      -370.2574653345 -6.23E-06
     4 OT DIIS     0.80E-01    0.2     0.00000076      -370.2574654456 -1.11E-07

  *** SCF run converged in     4 steps ***


  Core Hamiltonian energy:                                   -375.08101829090288
  Repulsive potential energy:                                   2.03390559842418
  Electronic energy:                                            2.95097920414631
  DFTB3 3rd order energy:                                       0.00393089047482
  Dispersion energy:                                           -0.16526284773580
  Correction for halogen bonding:                               0.00000000000000

  Total energy:                                              -370.25746544559343

  outer SCF iter =    1 RMS gradient =   0.76E-06 energy =       -370.2574654456
  outer SCF loop converged in   1 iterations or    4 steps


 ENERGY| Total FORCE_EVAL ( QS ) energy [hartree]           -370.257465455097361

 MD| ***************************************************************************
 MD| Step number                                                              18
 MD| Time [fs]                                                          9.000000
 MD| Conserved quantity [hartree]                            -0.370027148498E+03
 MD| ---------------------------------------------------------------------------
 MD|                                          Instantaneous             Averages
 MD| CPU time per MD step [s]                      1.699828             1.906253
 MD| Energy drift per atom [K]           0.137105181742E+00  -0.226451465702E+00
 MD| Potential energy [hartree]         -0.370257465455E+03  -0.370287609690E+03
 MD| Kinetic energy [hartree]            0.231552321877E+00   0.259789640257E+00
 MD| Temperature [K]                             255.212401           286.335016
 MD| ***************************************************************************

 Number of electrons:                                                        512
 Number of occupied orbitals:                                                256
 Number of molecular orbitals:                                               256

 Number of orbital functions:                                                512
 Number of independent orbital functions:                                    512

 Extrapolation method: ASPC


 SCF WAVEFUNCTION OPTIMIZATION

  ----------------------------------- OT ---------------------------------------
  Minimizer      : DIIS                : direct inversion
                                         in the iterative subspace
[...]
 MD| CPU time per MD step [s]                      1.697096             1.749526
 MD| Energy drift per atom [K]           0.930153905775E-01  -0.281934630923E+00
 MD| Potential energy [hartree]         -0.370294449827E+03  -0.370291936445E+03
 MD| Kinetic energy [hartree]            0.256831632980E+00   0.254593979278E+00
 MD| Temperature [K]                             283.074759           280.608461
 MD| ***************************************************************************

 Number of electrons:                                                        512
 Number of occupied orbitals:                                                256
 Number of molecular orbitals:                                               256

 Number of orbital functions:                                                512
 Number of independent orbital functions:                                    512

 Extrapolation method: ASPC


 SCF WAVEFUNCTION OPTIMIZATION

  ----------------------------------- OT ---------------------------------------
  Minimizer      : DIIS                : direct inversion
                                         in the iterative subspace
                                         using   7 DIIS vectors
                                         safer DIIS on
  Preconditioner : FULL_SINGLE_INVERSE : inversion of 
                                         H + eS - 2*(Sc)(c^T*H*c+const)(Sc)^T
  Precond_solver : DEFAULT
  stepsize       :    0.08000000                  energy_gap     :    0.08000000
  eps_taylor     :   0.10000E-15                  max_taylor     :             4
  ----------------------------------- OT ---------------------------------------

  Step     Update method      Time    Convergence         Total energy    Change
  ------------------------------------------------------------------------------
     1 OT DIIS     0.80E-01    0.5     0.00002984      -370.2940848966 -3.70E+02
     2 OT DIIS     0.80E-01    0.2     0.00001991      -370.2940926633 -7.77E-06
     3 OT DIIS     0.80E-01    0.2     0.00000284      -370.2940990173 -6.35E-06
     4 OT DIIS     0.80E-01    0.2     0.00000076      -370.2940991208 -1.04E-07

  *** SCF run converged in     4 steps ***


  Core Hamiltonian energy:                                   -375.14404204058053
  Repulsive potential energy:                                   2.07038469798242
  Electronic energy:                                            2.94100788153423
  DFTB3 3rd order energy:                                       0.00390742540784
  Dispersion energy:                                           -0.16535708513223
  Correction for halogen bonding:                               0.00000000000000

  Total energy:                                              -370.29409912078825

  outer SCF iter =    1 RMS gradient =   0.76E-06 energy =       -370.2940991208
  outer SCF loop converged in   1 iterations or    4 steps


 ENERGY| Total FORCE_EVAL ( QS ) energy [hartree]           -370.294099130052075

 MD| ***************************************************************************
 MD| Step number                                                             100
 MD| Time [fs]                                                         50.000000
 MD| Conserved quantity [hartree]                            -0.370027200293E+03
 MD| ---------------------------------------------------------------------------
 MD|                                          Instantaneous             Averages
 MD| CPU time per MD step [s]                      1.805299             1.750084
 MD| Energy drift per atom [K]           0.519197880162E-01  -0.278596086734E+00
 MD| Potential energy [hartree]         -0.370294099130E+03  -0.370291958072E+03
 MD| Kinetic energy [hartree]            0.256589616834E+00   0.254613935654E+00
 MD| Temperature [K]                             282.808014           280.630457
 MD| ***************************************************************************

 -------------------------------------------------------------------------------
 -                                                                             -
 -                                DBCSR STATISTICS                             -
 -                                                                             -
 -------------------------------------------------------------------------------
 COUNTER                                    TOTAL       BLAS       SMM       ACC
 flops     4 x    32 x    32           3812622336     100.0%      0.0%      0.0%     
 flops     2 x    32 x    32           3812622336     100.0%      0.0%      0.0%     
 flops    32 x    32 x   512           3812622336     100.0%      0.0%      0.0%     
 flops    64 x   256 x   256           4982833152     100.0%      0.0%      0.0%     
 flops    40 x   256 x   512           5389680640     100.0%      0.0%      0.0%     
 flops     4 x     4 x   256           6498852864     100.0%      0.0%      0.0%     
 flops     2 x     4 x   256           9140916224     100.0%      0.0%      0.0%     
 flops     4 x     2 x   256           9157890048     100.0%      0.0%      0.0%     
 flops    40 x   256 x   256           9767485440     100.0%      0.0%      0.0%     
 flops     2 x     2 x   256          11244619776     100.0%      0.0%      0.0%     
 flops    32 x   256 x   256          14948499456     100.0%      0.0%      0.0%     
 flops    66 x   256 x   512          17785946112     100.0%      0.0%      0.0%     
 flops     4 x    32 x     4          25820119040     100.0%      0.0%      0.0%     
 flops    64 x   256 x   512          26021462016     100.0%      0.0%      0.0%     
 flops    66 x   256 x   256          32232701952     100.0%      0.0%      0.0%     
 flops     4 x    32 x     2          41700171776     100.0%      0.0%      0.0%     
 flops     2 x    32 x     4          41700171776     100.0%      0.0%      0.0%     
 flops    68 x   256 x   512          45812285440     100.0%      0.0%      0.0%     
 flops     2 x    32 x     2          52892692480     100.0%      0.0%      0.0%     
 flops    32 x   256 x   512          78064386048     100.0%      0.0%      0.0%     
 flops    68 x   256 x   256          83023626240     100.0%      0.0%      0.0%     
 flops inhomo. stacks                           0       0.0%      0.0%      0.0%
 flops total                       527.622207E+09     100.0%      0.0%      0.0%
 flops max/rank                    527.622207E+09     100.0%      0.0%      0.0%
 matmuls inhomo. stacks                         0       0.0%      0.0%      0.0%
 matmuls total                          406903563     100.0%      0.0%      0.0%
 number of processed stacks                524159     100.0%      0.0%      0.0%
 average stack size                                   776.3       0.0       0.0
 marketing flops                   672.095273E+09
 -------------------------------------------------------------------------------
 # multiplications                           7362
 max memory usage/rank               0.000000E+00
 # max total images/rank                        1
 # max 3D layers                                1
 # MPI messages exchanged                       0
 -------------------------------------------------------------------------------
 -                                                                             -
 -                      DBCSR MESSAGE PASSING PERFORMANCE                      -
 -                                                                             -
 -------------------------------------------------------------------------------
 ROUTINE             CALLS      AVE VOLUME [Bytes]
 MP_Bcast               22                     12.
 MP_Allreduce        36357                      8.
 MP_Alltoall         43273                 428728.
 MP_ISend            29044                 113439.
 MP_IRecv            29044                 113439.
 -------------------------------------------------------------------------------

 -------------------------------------------------------------------------------
 -                                                                             -
 -                                DBM STATISTICS                               -
 -                                                                             -
 -------------------------------------------------------------------------------
    M  x    N  x    K                                          COUNT     PERCENT
 -------------------------------------------------------------------------------

 -------------------------------------------------------------------------------
 -                                                                             -
 -                                GRID STATISTICS                              -
 -                                                                             -
 -------------------------------------------------------------------------------
 LP    KERNEL             BACKEND                              COUNT     PERCENT
 -------------------------------------------------------------------------------

 MEMORY| Estimated peak process memory [MiB]                                   0

 -------------------------------------------------------------------------------
 -                                                                             -
 -                         MESSAGE PASSING PERFORMANCE                         -
 -                                                                             -
 -------------------------------------------------------------------------------

 ROUTINE             CALLS      AVE VOLUME [Bytes]
 MP_Group                2
 MP_Bcast            11545                   2399.
 MP_Allreduce        42045                   1971.
 MP_Sync                 3
 MP_comm_split           1
 -------------------------------------------------------------------------------


 -------------------------------------------------------------------------------
 -                                                                             -
 -                           R E F E R E N C E S                               -
 -                                                                             -
 -------------------------------------------------------------------------------
 
 CP2K version 2025.1, the CP2K developers group (2025).
 CP2K is freely available from https://www.cp2k.org/ .
 
 T. D. Kuehne, M. Iannuzzi, M. Del Ben, V. V. Rybkin, P. Seewald, F. Stein, T. 
 Laino, R. Z. Khaliullin, O. Schuett, F. Schiffmann, D. Golze, J. Wilhelm, S. 
 Chulkov, M. H. Bani-Hashemian, V. Weber, U. Borstnik, M. Taillefumier, A. S. 
 Jakobovits, A. Lazzaro, H. Pabst, T. Mueller, R. Schade, M. Guidon, S. 
 Andermatt, N. Holmberg, G. K. Schenter, A. Hehn, A. Bussy, F. Belleflamme, G. 
 Tabacchi, A. Gloess, M. Lass, I. Bethune, C. J. Mundy, C. Plessl, M. Watkins, 
 J. VandeVondele, M. Krack, J. Hutter.
 J. Chem. Phys. 152, 194103 (2020).
 CP2K: An electronic structure and molecular dynamics software package - 
 Quickstep: Efficient and accurate electronic structure calculations.
 https://doi.org/10.1063/5.0007045

 P. Pracht, E. Caldeweyher, S. Ehlert, S. Grimme.
 ChemRxiv, (2019).
 A Robust Non-Self-Consistent Tight-Binding Quantum Chemistry Method for large 
 Molecules.
 https://doi.org/10.26434/chemrxiv.8326202.v1

 S. Grimme, C. Bannwarth, P. Shushkov.
 J. Chem. Theory Comput. 13, 1989 (2017).
 A Robust and Accurate Tight-Binding Quantum Chemical Method for Structures, 
 Vibrational Frequencies, and Noncovalent Interactions of Large Molecular 
 Systems Parametrized for All spd-Block Elements (Z = 1-86).
 https://doi.org/10.1021/acs.jctc.7b00118

 L. Goerigk, A. Hansen, C. Bauer, S. Ehrlich, A. Najibi, S. Grimme.
 Phys. Chem. Chem. Phys. 19, 32184-32215 (2017).
 A look at the density functional theory zoo with the advanced GMTKN55 database 
 for general main group thermochemistry, kinetics and noncovalent interactions.
 https://doi.org/10.1039/C7CP04913G

 O. Schuett, P. Messmer, J. Hutter, J. VandeVondele.
 Electronic Structure Calculations on Graphics Processing Units, 173-190 (2016).
 GPU-Accelerated Sparse Matrix-Matrix Multiplication for Linear Scaling Density 
 Functional Theory.
 https://doi.org/10.1002/9781118670712.ch8

 J. Hutter, M. Iannuzzi, F. Schiffmann, J. VandeVondele.
 WIREs Comput Mol Sci. 4, 15-25 (2014).
 CP2K: atomistic simulations of condensed matter systems.
 https://doi.org/10.1002/wcms.1159

 U. Borstnik, J. VandeVondele, V. Weber, J. Hutter.
 Parallel Comput. 40, 47-58 (2014).
 Sparse matrix multiplication: The distributed block-compressed sparse row 
 library.
 https://doi.org/10.1016/j.parco.2014.03.012

 S. Grimme, S. Ehrlich, L. Goerigk.
 J. Comput. Chem. 32, 1456 (2011).
 Effect of the damping function in dispersion corrected density functional 
 theory.
 https://doi.org/10.1002/jcc.21759

 S. Grimme, J. Antony, S. Ehrlich, H. Krieg.
 J. Chem. Phys. 132, 154104 (2010).
 A consistent and accurate ab initio parametrization of density functional 
 dispersion correction (DFT-D) for the 94 elements H-Pu.
 https://doi.org/10.1063/1.3382344

 G. Bussi, D. Donadio, M. Parrinello.
 J. Chem. Phys. 126, 014101 (2007).
 Canonical sampling through velocity rescaling.
 https://doi.org/10.1063/1.2408420

 T. D. Khne, M. Krack, F. R. Mohamed, M. Parrinello.
 Phys. Rev. Lett. 98, 066401 (2007).
 Efficient and accurate Car-Parrinello-like approach to Born-Oppenheimer 
 molecular dynamics.
 https://doi.org/10.1103/PhysRevLett.98.066401

 M. Frigo, S. G. Johnson.
 Proc. IEEE 93, 216-231 (2005).
 The design and implementation of FFTW3.
 https://doi.org/10.1109/JPROC.2004.840301

 J. Kolafa.
 J. Comput. Chem. 25, 335-342 (2004).
 Time-reversible always stable predictor-corrector method for molecular dynamics 
 of polarizable molecules.
 https://doi.org/10.1002/jcc.10385

 J. VandeVondele, J. Hutter.
 J. Chem. Phys. 118, 4365-4369 (2003).
 An efficient orbital transformation method for electronic structure 
 calculations.
 https://doi.org/10.1063/1.1543154


 -------------------------------------------------------------------------------
 -                                                                             -
 -                                T I M I N G                                  -
 -                                                                             -
 -------------------------------------------------------------------------------
 SUBROUTINE                       CALLS  ASD         SELF TIME        TOTAL TIME
                                MAXIMUM       AVERAGE  MAXIMUM  AVERAGE  MAXIMUM
 CP2K                                 1  1.0    0.007    0.007  175.057  175.057
 qs_mol_dyn_low                       1  2.0    0.002    0.002  175.013  175.013
 qs_forces                          101  4.0    0.007    0.007  174.834  174.834
 velocity_verlet                    100  3.0    0.004    0.004  171.679  171.679
 qs_energies                        101  5.0    0.003    0.003  146.816  146.816
 scf_env_do_scf                     101  6.0    0.002    0.002  106.484  106.484
 dbcsr_multiply_generic            7362 12.3    0.559    0.559  105.122  105.122
 multiply_cannon                   7362 13.3    1.039    1.039   81.839   81.839
 multiply_cannon_loop              7362 14.3    1.006    1.006   79.169   79.169
 multiply_cannon_multrec           7362 15.3   78.078   78.078   78.161   78.161
 scf_env_do_scf_inner_loop          413  7.0    0.020    0.020   70.818   70.818
 qs_scf_new_mos                     413  8.0    0.001    0.001   47.676   47.676
 qs_scf_loop_do_ot                  413  9.0    0.001    0.001   47.674   47.674
 ot_scf_mini                        413 10.0    0.005    0.005   44.666   44.666
 rebuild_ks_matrix                  514  8.4    0.001    0.001   39.953   39.953
 build_gfn1_xtb_ks_matrix           514  9.4    0.010    0.010   39.952   39.952
 init_scf_loop                      101  7.0    0.001    0.001   35.487   35.487
 qs_ks_update_qs_env                514  8.0    0.001    0.001   30.161   30.161
 init_scf_run                       101  6.0    0.001    0.001   27.600   27.600
 scf_env_initial_rho_setup          101  7.0    0.001    0.001   27.599   27.599
 wfi_extrapolate                    101  8.0    0.005    0.005   27.373   27.373
 build_gfn1_xtb_matrices            202  6.0   19.417   19.417   25.753   25.753
 cp_dbcsr_sm_fm_multiply            490  9.4    0.005    0.005   24.975   24.975
 cp_dbcsr_sm_fm_multiply_core       490 10.4    0.001    0.001   22.879   22.879
 prepare_preconditioner             101  8.0    0.000    0.000   22.457   22.457
 make_preconditioner                101  9.0    0.000    0.000   22.457   22.457
 ot_mini                            413 11.0    0.001    0.001   18.394   18.394
 make_full_single_inverse           101 10.0    0.005    0.005   18.370   18.370
 build_xtb_coulomb                  514 10.4    9.480    9.480   15.071   15.071
 qs_ot_get_derivative               413 12.0    0.002    0.002   13.948   13.948
 make_m2s                         14724 13.3    0.082    0.082   13.650   13.650
 qs_energies_init_hamiltonians      101  6.0    0.000    0.000   10.896   10.896
 qs_ks_update_qs_env_forces         101  5.0    0.000    0.000    9.958    9.958
 dbcsr_finalize                   19450 13.0    2.098    2.098    9.257    9.257
 make_images                      14724 14.3    4.925    4.925    7.855    7.855
 qs_ot_get_derivative_taylor        413 13.0    0.005    0.005    7.200    7.200
 dbcsr_sym_m_v_mult                5471 13.0    0.086    0.086    6.470    6.470
 arnoldi_generalized_ev             101 11.0    0.001    0.001    6.413    6.413
 dbcsr_merge_all                  15405 14.7    5.297    5.297    6.152    6.152
 calculate_dispersion_pairpot       202  7.0    0.001    0.001    5.637    5.637
 gev_build_subspace                 103 12.0    0.019    0.019    5.636    5.636
 calculate_dispersion_d3_pairpo     202  8.0    5.479    5.479    5.636    5.636
 reorthogonalize_vectors            100  9.0    0.000    0.000    5.556    5.556
 make_basis_sm                      100 10.0    0.002    0.002    5.555    5.555
 ot_scf_init                        101  8.0    0.007    0.007    5.455    5.455
 dbcsr_make_dense_low             15200 15.6    0.061    0.061    5.111    5.111
 make_dense_data                  15200 16.6    2.530    2.530    5.027    5.027
 dbcsr_sym_m_v_mult_local_mm       5471 14.0    4.708    4.708    4.726    4.726
 tb_spme_evaluate                   514 11.4    0.166    0.166    4.596    4.596
 dbcsr_add_d                       4727 13.2    0.003    0.003    4.542    4.542
 dbcsr_add_anytype                 4727 14.2    0.437    0.437    4.538    4.538
 ot_diis_step                       413 12.0    0.006    0.006    4.436    4.436
 dbcsr_complete_redistribute       2598 11.5    2.404    2.404    4.290    4.290
 dbcsr_make_images_dense          10678 14.8    0.028    0.028    4.028    4.028
 calculate_dm_sparse                514  9.8    0.001    0.001    3.984    3.984
 qs_ot_get_p                        514 10.6    0.002    0.002    3.880    3.880
 make_full_inverse_cholesky         101 10.0    0.001    0.001    3.652    3.652
 -------------------------------------------------------------------------------

 The number of warnings for this run is : 5
 
 -------------------------------------------------------------------------------
  **** **** ******  **  PROGRAM ENDED AT                 2025-09-04 10:03:28.872
 ***** ** ***  *** **   PROGRAM RAN ON            MacBook-Air-von-Michelle.local
 **    ****   ******    PROGRAM RAN BY                                  michelle
 ***** **    ** ** **   PROGRAM PROCESS ID                                 47418
  **** **  *******  **  PROGRAM STOPPED IN /Users/michelle/Desktop/Work/Conferen
                                           ces_Talks/SCrS2025/CP2K_exercises
