 DBCSR| CPU Multiplication driver                                           BLAS (U)
 DBCSR| Multrec recursion limit                                              512 (U)
 DBCSR| Multiplication stack size                                           1000 (D)
 DBCSR| Maximum elements for images                                    UNLIMITED (U)
 DBCSR| Multiplicative factor virtual images                                   1 (U)
 DBCSR| Use multiplication densification                                       T (D)
 DBCSR| Multiplication size stacks                                             3 (U)
 DBCSR| Use memory pool for CPU allocation                                     F (U)
 DBCSR| Number of 3D layers                                               SINGLE (U)
 DBCSR| Use MPI memory allocation                                              F (U)
 DBCSR| Use RMA algorithm                                                      F (U)
 DBCSR| Use Communication thread                                               T (U)
 DBCSR| Communication thread load                                             60 (D)
 DBCSR| MPI: My process id                                                     0
 DBCSR| MPI: Number of processes                                               1
 DBCSR| OMP: Current number of threads                                         8
 DBCSR| OMP: Max number of threads                                             8
 DBCSR| Split modifier for TAS multiplication algorithm                  1.0E+00 (U)


  **** **** ******  **  PROGRAM STARTED AT               2025-09-04 10:06:00.459
 ***** ** ***  *** **   PROGRAM STARTED ON        MacBook-Air-von-Michelle.local
 **    ****   ******    PROGRAM STARTED BY                              michelle
 ***** **    ** ** **   PROGRAM PROCESS ID                                 47562
  **** **  *******  **  PROGRAM STARTED IN /Users/michelle/Desktop/Work/Conferen
                                           ces_Talks/SCrS2025/CP2K_exercises

 CP2K| version string:                                       CP2K version 2025.1
 CP2K| source code revision number:                                             
 CP2K| cp2kflags: omp libint fftw3 libxc parallel scalapack no_statm_access     
 CP2K| is freely available from                            https://www.cp2k.org/
 CP2K| Program compiled at                                   2025-01-01 12:26:53
 CP2K| Program compiled on                                                      
 CP2K| Program compiled for                                                arm64
 CP2K| Data directory path      /opt/homebrew/Cellar/cp2k/2025.1/share/cp2k/data
 CP2K| Input file name                                             water_dft.inp

 GLOBAL| Force Environment number                                              1
 GLOBAL| Basis set file name                                        BASIS_MOLOPT
 GLOBAL| Potential file name                                      GTH_POTENTIALS
 GLOBAL| MM Potential file name                                     MM_POTENTIAL
 GLOBAL| Coordinate file name                                          water.xyz
 GLOBAL| Method name                                                        CP2K
 GLOBAL| Project name                                                  water_dft
 GLOBAL| Run type                                                             MD
 GLOBAL| FFT library                                                       FFTW3
 GLOBAL| Diagonalization library                                       ScaLAPACK
 GLOBAL| DGEMM library                                                      BLAS
 GLOBAL| Orthonormality check for eigenvectors                          DISABLED
 GLOBAL| Matrix multiplication library                                 ScaLAPACK
 GLOBAL| All-to-all communication in single precision                          F
 GLOBAL| FFTs using library dependent lengths                                  F
 GLOBAL| Grid backend                                                       AUTO
 GLOBAL| Global print level                                                  LOW
 GLOBAL| MPI I/O enabled                                                       T
 GLOBAL| Total number of message passing processes                             1
 GLOBAL| Number of threads for this process                                    8
 GLOBAL| This output is from process                                           0
 GLOBAL| OpenMP stack size per thread (OMP_STACKSIZE)                    default
 GLOBAL| CPU model name                                                  UNKNOWN
 GLOBAL| CPUID                                                              2000

 MEMORY| system memory details [Kb]
 MEMORY|                        rank 0           min           max       average
 MEMORY| MemTotal                    0             0             0             0
 MEMORY| MemFree                     0             0             0             0
 MEMORY| Buffers                     0             0             0             0
 MEMORY| Cached                      0             0             0             0
 MEMORY| Slab                        0             0             0             0
 MEMORY| SReclaimable                0             0             0             0
 MEMORY| MemLikelyFree               0             0             0             0


 GENERATE|  Preliminary Number of Bonds generated:                             0
 GENERATE|  Achieved consistency in connectivity generation.

 *******************************************************************************
 *******************************************************************************
 **                                                                           **
 **     #####                         ##              ##                      **
 **    ##   ##            ##          ##              ##                      **
 **   ##     ##                       ##            ######                    **
 **   ##     ##  ##   ##  ##   #####  ##  ##   ####   ##    #####    #####    **
 **   ##     ##  ##   ##  ##  ##      ## ##   ##      ##   ##   ##  ##   ##   **
 **   ##  ## ##  ##   ##  ##  ##      ####     ###    ##   ######   ######    **
 **    ##  ###   ##   ##  ##  ##      ## ##      ##   ##   ##       ##        **
 **     #######   #####   ##   #####  ##  ##  ####    ##    #####   ##        **
 **           ##                                                    ##        **
 **                                                                           **
 **                                                ... make the atoms dance   **
 **                                                                           **
 **            Copyright (C) by CP2K developers group (2000-2025)             **
 **                      J. Chem. Phys. 152, 194103 (2020)                    **
 **                                                                           **
 *******************************************************************************


 TOTAL NUMBERS AND MAXIMUM NUMBERS

  Total number of            - Atomic kinds:                                   2
                             - Atoms:                                        192
                             - Shell sets:                                   192
                             - Shells:                                       704
                             - Primitive Cartesian functions:                960
                             - Cartesian basis functions:                   1536
                             - Spherical basis functions:                   1472

  Maximum angular momentum of- Orbital basis functions:                        2
                             - Local part of the GTH pseudopotential:          2
                             - Non-local part of the GTH pseudopotential:      0


 SCF PARAMETERS         Density guess:                                    ATOMIC
                        --------------------------------------------------------
                        max_scf:                                              30
                        max_scf_history:                                       0
                        max_diis:                                              4
                        --------------------------------------------------------
                        eps_scf:                                        1.00E-06
                        eps_scf_history:                                0.00E+00
                        eps_diis:                                       1.00E-01
                        eps_eigval:                                     1.00E-05
                        --------------------------------------------------------
                        level_shift [a.u.]:                             0.000000
                        --------------------------------------------------------
                        Outer loop SCF in use 
                        No variables optimised in outer loop
                        eps_scf                                         1.00E-06
                        max_scf                                               10
                        No outer loop optimization
                        step_size                                       5.00E-01

 MD_PAR| Molecular dynamics protocol (MD input parameters)
 MD_PAR| Ensemble type                                                       NVT
 MD_PAR| Number of time steps                                                100
 MD_PAR| Time step [fs]                                                 0.500000
 MD_PAR| Temperature [K]                                              300.000000
 MD_PAR| Temperature tolerance [K]                                      0.000000
 MD_PAR| Print MD information every                                    1 step(s)
 MD_PAR| File type   Print frequency [steps]                          File names
 MD_PAR| Coordinates          1                              water_dft-pos-1.xyz
 MD_PAR| Velocities           1                              water_dft-vel-1.xyz
 MD_PAR| Energies             1                                 water_dft-1.ener
 MD_PAR| Dump                20                              water_dft-1.restart

 ROT| Rotational analysis information
 ROT| Principal axes and moments of inertia [a.u.]
 ROT|                           1                   2                   3
 ROT| Eigenvalues      2.05585957588E+08   2.18420756715E+08   2.44815971865E+08
 ROT|      x              0.422535724749     -0.517084350433      0.744370429187
 ROT|      y              0.905625145748      0.208115968654     -0.369500796994
 ROT|      z              0.036147706690      0.830247865477      0.556221021872
 ROT| Number of rotovibrational vectors                                        6

 DOF| Calculation of degrees of freedom
 DOF| Number of atoms                                                        192
 DOF| Number of intramolecular constraints                                     0
 DOF| Number of intermolecular constraints                                     0
 DOF| Invariants (translations + rotations)                                    3
 DOF| Degrees of freedom                                                     573

 DOF| Restraints information
 DOF| Number of intramolecular restraints                                      0
 DOF| Number of intermolecular restraints                                      0

 THERMOSTAT| Thermostat information for PARTICLES
 THERMOSTAT| Type of thermostat            Canonical Sampling/Velocity Rescaling
 THERMOSTAT| CSVR time constant [fs]                                  200.000000
 THERMOSTAT| Initial kinetic energy                           0.000000000000E+00
 THERMOSTAT| End of thermostat information for PARTICLES

 MD_VEL| Velocities initialization
 MD_VEL| Initial temperature [K]                                      300.000000
 MD_VEL| COM velocity             0.0000000000    -0.0000000000     0.0000000000

 Number of electrons:                                                        512
 Number of occupied orbitals:                                                256
 Number of molecular orbitals:                                               256

 Number of orbital functions:                                               1472
 Number of independent orbital functions:                                   1472

 Extrapolation method: initial_guess


 SCF WAVEFUNCTION OPTIMIZATION

  ----------------------------------- OT ---------------------------------------
  Minimizer      : DIIS                : direct inversion
                                         in the iterative subspace
                                         using   7 DIIS vectors
                                         safer DIIS on
  Preconditioner : FULL_SINGLE_INVERSE : inversion of 
                                         H + eS - 2*(Sc)(c^T*H*c+const)(Sc)^T
  Precond_solver : DEFAULT
  stepsize       :    0.08000000                  energy_gap     :    0.08000000
  eps_taylor     :   0.10000E-15                  max_taylor     :             4
  ----------------------------------- OT ---------------------------------------

  Step     Update method      Time    Convergence         Total energy    Change
  ------------------------------------------------------------------------------
     1 OT DIIS     0.80E-01    2.8     0.02903455     -1061.7437096395 -1.06E+03
     2 OT DIIS     0.80E-01    2.7     0.02149768     -1081.1299788949 -1.94E+01
     3 OT DIIS     0.80E-01    2.4     0.01655518     -1091.7199981867 -1.06E+01
     4 OT DIIS     0.80E-01    2.4     0.01035190     -1099.0998975133 -7.38E+00
     5 OT DIIS     0.80E-01    2.4     0.00552451     -1101.0252688129 -1.93E+00
     6 OT DIIS     0.80E-01    2.5     0.00435861     -1101.8960373724 -8.71E-01
     7 OT DIIS     0.80E-01    2.5     0.00340331     -1102.2579429918 -3.62E-01
     8 OT DIIS     0.80E-01    2.5     0.00341514     -1102.5174390214 -2.59E-01
     9 OT DIIS     0.80E-01    2.5     0.00344293     -1102.5860669134 -6.86E-02
    10 OT DIIS     0.80E-01    2.5     0.00340036     -1102.6837644577 -9.77E-02
    11 OT DIIS     0.80E-01    2.5     0.00319322     -1102.8040661578 -1.20E-01
    12 OT DIIS     0.80E-01    2.5     0.00284943     -1103.0710894847 -2.67E-01
    13 OT DIIS     0.80E-01    2.5     0.00136357     -1103.1402255386 -6.91E-02
    14 OT DIIS     0.80E-01    2.5     0.00132189     -1103.1658409248 -2.56E-02
    15 OT DIIS     0.80E-01    2.5     0.00108962     -1103.2044587296 -3.86E-02
    16 OT DIIS     0.80E-01    2.5     0.00070718     -1103.2337232121 -2.93E-02
    17 OT DIIS     0.80E-01    2.6     0.00038426     -1103.2545184490 -2.08E-02
    18 OT DIIS     0.80E-01    2.5     0.00023885     -1103.2639886716 -9.47E-03
    19 OT DIIS     0.80E-01    2.5     0.00015259     -1103.2681631693 -4.17E-03
    20 OT DIIS     0.80E-01    2.6     0.00010742     -1103.2698285418 -1.67E-03
    21 OT DIIS     0.80E-01    2.6     0.00008385     -1103.2704627606 -6.34E-04
    22 OT DIIS     0.80E-01    2.5     0.00006194     -1103.2708746563 -4.12E-04
    23 OT DIIS     0.80E-01    2.5     0.00004980     -1103.2710538455 -1.79E-04
    24 OT DIIS     0.80E-01    2.5     0.00004205     -1103.2711787316 -1.25E-04
    25 OT DIIS     0.80E-01    2.6     0.00003588     -1103.2713045231 -1.26E-04
    26 OT DIIS     0.80E-01    2.6     0.00003128     -1103.2713827253 -7.82E-05
    27 OT DIIS     0.80E-01    2.6     0.00002740     -1103.2714381857 -5.55E-05
    28 OT DIIS     0.80E-01    2.8     0.00002454     -1103.2714942186 -5.60E-05
    29 OT DIIS     0.80E-01    2.6     0.00002208     -1103.2715491500 -5.49E-05
    30 OT DIIS     0.80E-01    2.6     0.00001972     -1103.2715961598 -4.70E-05

  Leaving inner SCF loop after reaching    30 steps.


  Electronic density on regular grids:       -512.0000000029       -0.0000000029
  Core density on regular grids:              511.9999999832       -0.0000000168
  Total charge density on r-space grids:       -0.0000000197
  Total charge density g-space grids:          -0.0000000197

  Overlap energy of the core charge distribution:               0.00000237129466
  Self energy of the core charge distribution:              -2838.21791979120962
  Core Hamiltonian energy:                                    827.61299188761666
  Hartree energy:                                            1179.06942201577704
  Exchange-correlation energy:                               -271.49029104259148
  Dispersion energy:                                           -0.24580160066491

  Total energy:                                             -1103.27159615977757

  outer SCF iter =    1 RMS gradient =   0.20E-04 energy =      -1103.2715961598

  ----------------------------------- OT ---------------------------------------
  Minimizer      : DIIS                : direct inversion
                                         in the iterative subspace
                                         using   7 DIIS vectors
                                         safer DIIS on
  Preconditioner : FULL_SINGLE_INVERSE : inversion of 
                                         H + eS - 2*(Sc)(c^T*H*c+const)(Sc)^T
  Precond_solver : DEFAULT
  stepsize       :    0.08000000                  energy_gap     :    0.08000000
  eps_taylor     :   0.10000E-15                  max_taylor     :             4
  ----------------------------------- OT ---------------------------------------

  Step     Update method      Time    Convergence         Total energy    Change
  ------------------------------------------------------------------------------
     1 OT DIIS     0.80E-01    5.9     0.00009310     -1103.2716364070 -4.02E-05
     2 OT DIIS     0.80E-01    2.6     0.00006414     -1103.2718562511 -2.20E-04
     3 OT DIIS     0.80E-01    2.5     0.00001399     -1103.2720607557 -2.05E-04
     4 OT DIIS     0.80E-01    2.5     0.00000505     -1103.2720692310 -8.48E-06
     5 OT DIIS     0.80E-01    2.5     0.00000245     -1103.2720702396 -1.01E-06
     6 OT DIIS     0.80E-01    2.5     0.00000073     -1103.2720705262 -2.87E-07

  *** SCF run converged in     6 steps ***


  Electronic density on regular grids:       -512.0000000029       -0.0000000029
  Core density on regular grids:              511.9999999832       -0.0000000168
  Total charge density on r-space grids:       -0.0000000197
  Total charge density g-space grids:          -0.0000000197

  Overlap energy of the core charge distribution:               0.00000237129466
  Self energy of the core charge distribution:              -2838.21791979120962
  Core Hamiltonian energy:                                    827.60989499677055
  Hartree energy:                                            1179.07164469274039
  Exchange-correlation energy:                               -271.48989119517324
  Dispersion energy:                                           -0.24580160066491

  Total energy:                                             -1103.27207052624226

  outer SCF iter =    2 RMS gradient =   0.73E-06 energy =      -1103.2720705262
  outer SCF loop converged in   2 iterations or   36 steps


 ENERGY| Total FORCE_EVAL ( QS ) energy [hartree]          -1103.272070549694035

 MD_INI| MD initialization
 MD_INI| Potential energy [hartree]                          -0.110327207055E+04
 MD_INI| Kinetic energy [hartree]                             0.272187778755E+00
 MD_INI| Temperature [K]                                              300.000000
 MD_INI| Cell volume [bohr^3]                                 1.292889458088E+04
 MD_INI| Cell volume [ang^3]                                  1.915864488000E+03
 MD_INI| Cell lengths [bohr]      2.34703986E+01  2.34703986E+01  2.34703986E+01
 MD_INI| Cell lengths [ang]       1.24200000E+01  1.24200000E+01  1.24200000E+01
 MD_INI| Cell angles [deg]        9.00000000E+01  9.00000000E+01  9.00000000E+01

 Number of electrons:                                                        512
 Number of occupied orbitals:                                                256
 Number of molecular orbitals:                                               256

 Number of orbital functions:                                               1472
 Number of independent orbital functions:                                   1472

 Extrapolation method: ASPC


 SCF WAVEFUNCTION OPTIMIZATION

  ----------------------------------- OT ---------------------------------------
  Minimizer      : DIIS                : direct inversion
                                         in the iterative subspace
                                         using   7 DIIS vectors
                                         safer DIIS on
  Preconditioner : FULL_SINGLE_INVERSE : inversion of 
                                         H + eS - 2*(Sc)(c^T*H*c+const)(Sc)^T
  Precond_solver : DEFAULT
  stepsize       :    0.08000000                  energy_gap     :    0.08000000
  eps_taylor     :   0.10000E-15                  max_taylor     :             4
  ----------------------------------- OT ---------------------------------------

  Step     Update method      Time    Convergence         Total energy    Change
  ------------------------------------------------------------------------------
     1 OT DIIS     0.80E-01    2.1     0.00032725     -1103.2703101903 -1.10E+03
     2 OT DIIS     0.80E-01    2.7     0.00019344     -1103.2728108575 -2.50E-03
     3 OT DIIS     0.80E-01    2.6     0.00007623     -1103.2741843208 -1.37E-03
     4 OT DIIS     0.80E-01    2.5     0.00002656     -1103.2744299541 -2.46E-04
     5 OT DIIS     0.80E-01    2.6     0.00000726     -1103.2744589686 -2.90E-05
     6 OT DIIS     0.80E-01    2.5     0.00000295     -1103.2744609602 -1.99E-06
     7 OT DIIS     0.80E-01    2.6     0.00000114     -1103.2744613159 -3.56E-07
     8 OT DIIS     0.80E-01    2.5     0.00000036     -1103.2744613733 -5.74E-08

  *** SCF run converged in     8 steps ***


  Electronic density on regular grids:       -512.0000000038       -0.0000000038
  Core density on regular grids:              511.9999999831       -0.0000000169
  Total charge density on r-space grids:       -0.0000000206
  Total charge density g-space grids:          -0.0000000206

  Overlap energy of the core charge distribution:               0.00000229209037
  Self energy of the core charge distribution:              -2838.21791979120962
  Core Hamiltonian energy:                                    827.45690676826939
  Hartree energy:                                            1179.18050837749115
  Exchange-correlation energy:                               -271.44816835530401
  Dispersion energy:                                           -0.24579066460712

  Total energy:                                             -1103.27446137326979

  outer SCF iter =    1 RMS gradient =   0.36E-06 energy =      -1103.2744613733
  outer SCF loop converged in   1 iterations or    8 steps


 ENERGY| Total FORCE_EVAL ( QS ) energy [hartree]          -1103.274461378095793

 MD| ***************************************************************************
 MD| Step number                                                               1
 MD| Time [fs]                                                          0.500000
 MD| Conserved quantity [hartree]                            -0.110299998999E+04
 MD| ---------------------------------------------------------------------------
 MD|                                          Instantaneous             Averages
 MD| CPU time per MD step [s]                    126.863345           126.863345
 MD| Energy drift per atom [K]          -0.176342687573E+00   0.000000000000E+00
 MD| Potential energy [hartree]         -0.110327446138E+04  -0.110327446138E+04
 MD| Kinetic energy [hartree]            0.272496435620E+00   0.272496435620E+00
 MD| Temperature [K]                             300.340196           300.340196
 MD| ***************************************************************************

 Number of electrons:                                                        512
 Number of occupied orbitals:                                                256
 Number of molecular orbitals:                                               256

 Number of orbital functions:                                               1472
 Number of independent orbital functions:                                   1472

 Extrapolation method: ASPC


 SCF WAVEFUNCTION OPTIMIZATION

  ----------------------------------- OT ---------------------------------------
  Minimizer      : DIIS                : direct inversion
                                         in the iterative subspace
                                         using   7 DIIS vectors
                                         safer DIIS on
  Preconditioner : FULL_SINGLE_INVERSE : inversion of 
                                         H + eS - 2*(Sc)(c^T*H*c+const)(Sc)^T
  Precond_solver : DEFAULT
  stepsize       :    0.08000000                  energy_gap     :    0.08000000
  eps_taylor     :   0.10000E-15                  max_taylor     :             4
  ----------------------------------- OT ---------------------------------------

  Step     Update method      Time    Convergence         Total energy    Change
  ------------------------------------------------------------------------------
     1 OT DIIS     0.80E-01    2.0     0.00008458     -1103.2760169598 -1.10E+03
     2 OT DIIS     0.80E-01    2.4     0.00004730     -1103.2761792560 -1.62E-04
     3 OT DIIS     0.80E-01    2.5     0.00001950     -1103.2762553072 -7.61E-05
     4 OT DIIS     0.80E-01    2.5     0.00000672     -1103.2762708068 -1.55E-05
     5 OT DIIS     0.80E-01    2.5     0.00000166     -1103.2762726856 -1.88E-06
     6 OT DIIS     0.80E-01    2.5     0.00000069     -1103.2762727874 -1.02E-07

  *** SCF run converged in     6 steps ***


  Electronic density on regular grids:       -512.0000000044       -0.0000000044
  Core density on regular grids:              511.9999999832       -0.0000000168
  Total charge density on r-space grids:       -0.0000000213
  Total charge density g-space grids:          -0.0000000213

  Overlap energy of the core charge distribution:               0.00000219531166
  Self energy of the core charge distribution:              -2838.21791979120962
  Core Hamiltonian energy:                                    827.22159764318371
  Hartree energy:                                            1179.34897219636650
  Exchange-correlation energy:                               -271.38315076030676
  Dispersion energy:                                           -0.24577427078101

  Total energy:                                             -1103.27627278743580

  outer SCF iter =    1 RMS gradient =   0.69E-06 energy =      -1103.2762727874
  outer SCF loop converged in   1 iterations or    6 steps


 ENERGY| Total FORCE_EVAL ( QS ) energy [hartree]          -1103.276272807096575

 MD| ***************************************************************************
 MD| Step number                                                               2
 MD| Time [fs]                                                          1.000000
 MD| Conserved quantity [hartree]                            -0.110300005858E+04
 MD| ---------------------------------------------------------------------------
 MD|                                          Instantaneous             Averages
 MD| CPU time per MD step [s]                     21.596293            74.229819
 MD| Energy drift per atom [K]          -0.289140294405E+00  -0.144570147203E+00
 MD| Potential energy [hartree]         -0.110327627281E+04  -0.110327536709E+04
 MD| Kinetic energy [hartree]            0.276414100051E+00   0.274455267835E+00
 MD| Temperature [K]                             304.658168           302.499182
 MD| ***************************************************************************

 Number of electrons:                                                        512
 Number of occupied orbitals:                                                256
 Number of molecular orbitals:                                               256

 Number of orbital functions:                                               1472
 Number of independent orbital functions:                                   1472

 Extrapolation method: ASPC


 SCF WAVEFUNCTION OPTIMIZATION

  ----------------------------------- OT ---------------------------------------
  Minimizer      : DIIS                : direct inversion
                                         in the iterative subspace
                                         using   7 DIIS vectors
                                         safer DIIS on
  Preconditioner : FULL_SINGLE_INVERSE : inversion of 
                                         H + eS - 2*(Sc)(c^T*H*c+const)(Sc)^T
  Precond_solver : DEFAULT
  stepsize       :    0.08000000                  energy_gap     :    0.08000000
  eps_taylor     :   0.10000E-15                  max_taylor     :             4
  ----------------------------------- OT ---------------------------------------

  Step     Update method      Time    Convergence         Total energy    Change
  ------------------------------------------------------------------------------
     1 OT DIIS     0.80E-01    2.1     0.00004530     -1103.2761947705 -1.10E+03
     2 OT DIIS     0.80E-01    2.5     0.00002530     -1103.2762412897 -4.65E-05
     3 OT DIIS     0.80E-01    2.5     0.00001046     -1103.2762630077 -2.17E-05
     4 OT DIIS     0.80E-01    2.5     0.00000364     -1103.2762674494 -4.44E-06
     5 OT DIIS     0.80E-01    2.7     0.00000092     -1103.2762680014 -5.52E-07

  *** SCF run converged in     5 steps ***


  Electronic density on regular grids:       -512.0000000049       -0.0000000049
  Core density on regular grids:              511.9999999832       -0.0000000168
  Total charge density on r-space grids:       -0.0000000217
  Total charge density g-space grids:          -0.0000000217

  Overlap energy of the core charge distribution:               0.00000208572369
  Self energy of the core charge distribution:              -2838.21791979120962
  Core Hamiltonian energy:                                    826.93219320172102
  Hartree energy:                                            1179.55764856481437
  Exchange-correlation energy:                               -271.30243322016412
  Dispersion energy:                                           -0.24575884228681

  Total energy:                                             -1103.27626800140138

  outer SCF iter =    1 RMS gradient =   0.92E-06 energy =      -1103.2762680014
  outer SCF loop converged in   1 iterations or    5 steps


 ENERGY| Total FORCE_EVAL ( QS ) energy [hartree]          -1103.276268032368989

 MD| ***************************************************************************
 MD| Step number                                                               3
 MD| Time [fs]                                                          1.500000
 MD| Conserved quantity [hartree]                            -0.110300008746E+04
 MD| ---------------------------------------------------------------------------
 MD|                                          Instantaneous             Averages
 MD| CPU time per MD step [s]                     19.581423            56.013687
 MD| Energy drift per atom [K]          -0.336643592034E+00  -0.208594628813E+00
 MD| Potential energy [hartree]         -0.110327626803E+04  -0.110327566741E+04
 MD| Kinetic energy [hartree]            0.277902182331E+00   0.275604239334E+00
 MD| Temperature [K]                             306.298303           303.765555
 MD| ***************************************************************************

 Number of electrons:                                                        512
 Number of occupied orbitals:                                                256
 Number of molecular orbitals:                                               256

 Number of orbital functions:                                               1472
 Number of independent orbital functions:                                   1472

 Extrapolation method: ASPC


 SCF WAVEFUNCTION OPTIMIZATION

  ----------------------------------- OT ---------------------------------------
  Minimizer      : DIIS                : direct inversion
                                         in the iterative subspace
                                         using   7 DIIS vectors
                                         safer DIIS on
  Preconditioner : FULL_SINGLE_INVERSE : inversion of 
                                         H + eS - 2*(Sc)(c^T*H*c+const)(Sc)^T
  Precond_solver : DEFAULT
  stepsize       :    0.08000000                  energy_gap     :    0.08000000
  eps_taylor     :   0.10000E-15                  max_taylor     :             4
  ----------------------------------- OT ---------------------------------------

  Step     Update method      Time    Convergence         Total energy    Change
  ------------------------------------------------------------------------------
     1 OT DIIS     0.80E-01    2.0     0.00003459     -1103.2738055771 -1.10E+03
     2 OT DIIS     0.80E-01    2.5     0.00001934     -1103.2738326669 -2.71E-05
     3 OT DIIS     0.80E-01    2.5     0.00000822     -1103.2738453086 -1.26E-05
     4 OT DIIS     0.80E-01    2.5     0.00000282     -1103.2738480693 -2.76E-06
     5 OT DIIS     0.80E-01    2.6     0.00000071     -1103.2738483997 -3.30E-07

  *** SCF run converged in     5 steps ***


  Electronic density on regular grids:       -512.0000000052       -0.0000000052
  Core density on regular grids:              511.9999999832       -0.0000000168
  Total charge density on r-space grids:       -0.0000000220
  Total charge density g-space grids:          -0.0000000220

  Overlap energy of the core charge distribution:               0.00000198391729
  Self energy of the core charge distribution:              -2838.21791979120962
  Core Hamiltonian energy:                                    826.61893498314703
  Hartree energy:                                            1179.78526144545958
  Exchange-correlation energy:                               -271.21437750121203
  Dispersion energy:                                           -0.24574951978185

  Total energy:                                             -1103.27384839967976

  outer SCF iter =    1 RMS gradient =   0.71E-06 energy =      -1103.2738483997
  outer SCF loop converged in   1 iterations or    5 steps


 ENERGY| Total FORCE_EVAL ( QS ) energy [hartree]          -1103.273848418273019

 MD| ***************************************************************************
 MD| Step number                                                               4
 MD| Time [fs]                                                          2.000000
 MD| Conserved quantity [hartree]                            -0.110300007226E+04
 MD| ---------------------------------------------------------------------------
 MD|                                          Instantaneous             Averages
 MD| CPU time per MD step [s]                     19.370608            46.852917
 MD| Energy drift per atom [K]          -0.311651837916E+00  -0.234358931089E+00
 MD| Potential energy [hartree]         -0.110327384842E+04  -0.110327521266E+04
 MD| Kinetic energy [hartree]            0.274358718445E+00   0.275292859112E+00
 MD| Temperature [K]                             302.392767           303.422358
 MD| ***************************************************************************

 Number of electrons:                                                        512
 Number of occupied orbitals:                                                256
 Number of molecular orbitals:                                               256

 Number of orbital functions:                                               1472
 Number of independent orbital functions:                                   1472

 Extrapolation method: ASPC


 SCF WAVEFUNCTION OPTIMIZATION

  ----------------------------------- OT ---------------------------------------
  Minimizer      : DIIS                : direct inversion
                                         in the iterative subspace
                                         using   7 DIIS vectors
                                         safer DIIS on
  Preconditioner : FULL_SINGLE_INVERSE : inversion of 
                                         H + eS - 2*(Sc)(c^T*H*c+const)(Sc)^T
  Precond_solver : DEFAULT
  stepsize       :    0.08000000                  energy_gap     :    0.08000000
  eps_taylor     :   0.10000E-15                  max_taylor     :             4
  ----------------------------------- OT ---------------------------------------

  Step     Update method      Time    Convergence         Total energy    Change
  ------------------------------------------------------------------------------
     1 OT DIIS     0.80E-01    2.1     0.00003065     -1103.2691920519 -1.10E+03
     2 OT DIIS     0.80E-01    2.5     0.00001711     -1103.2692132704 -2.12E-05
     3 OT DIIS     0.80E-01    2.5     0.00000737     -1103.2692230890 -9.82E-06
     4 OT DIIS     0.80E-01    2.5     0.00000248     -1103.2692253102 -2.22E-06
     5 OT DIIS     0.80E-01    2.5     0.00000064     -1103.2692255640 -2.54E-07

  *** SCF run converged in     5 steps ***


  Electronic density on regular grids:       -512.0000000053       -0.0000000053
  Core density on regular grids:              511.9999999832       -0.0000000168
  Total charge density on r-space grids:       -0.0000000221
  Total charge density g-space grids:          -0.0000000221

  Overlap energy of the core charge distribution:               0.00000190331900
  Self energy of the core charge distribution:              -2838.21791979120962
  Core Hamiltonian energy:                                    826.31059724327736
  Hartree energy:                                            1180.01101655523507
  Exchange-correlation energy:                               -271.12717226524256
  Dispersion energy:                                           -0.24574920937126

  Total energy:                                             -1103.26922556399199

  outer SCF iter =    1 RMS gradient =   0.64E-06 energy =      -1103.2692255640
  outer SCF loop converged in   1 iterations or    5 steps


 ENERGY| Total FORCE_EVAL ( QS ) energy [hartree]          -1103.269225579042086

 MD| ***************************************************************************
 MD| Step number                                                               5
 MD| Time [fs]                                                          2.500000
 MD| Conserved quantity [hartree]                            -0.110300001016E+04
 MD| ---------------------------------------------------------------------------
 MD|                                          Instantaneous             Averages
 MD| CPU time per MD step [s]                     19.413474            41.365029
 MD| Energy drift per atom [K]          -0.209507336444E+00  -0.229388612160E+00
 MD| Potential energy [hartree]         -0.110326922558E+04  -0.110327401524E+04
 MD| Kinetic energy [hartree]            0.268604214096E+00   0.273955130109E+00
 MD| Temperature [K]                             296.050266           301.947940
 MD| ***************************************************************************

 Number of electrons:                                                        512
 Number of occupied orbitals:                                                256
 Number of molecular orbitals:                                               256

 Number of orbital functions:                                               1472
 Number of independent orbital functions:                                   1472

 Extrapolation method: ASPC


 SCF WAVEFUNCTION OPTIMIZATION

  ----------------------------------- OT ---------------------------------------
  Minimizer      : DIIS                : direct inversion
                                         in the iterative subspace
                                         using   7 DIIS vectors
                                         safer DIIS on
  Preconditioner : FULL_SINGLE_INVERSE : inversion of 
                                         H + eS - 2*(Sc)(c^T*H*c+const)(Sc)^T
  Precond_solver : DEFAULT
  stepsize       :    0.08000000                  energy_gap     :    0.08000000
  eps_taylor     :   0.10000E-15                  max_taylor     :             4
  ----------------------------------- OT ---------------------------------------

  Step     Update method      Time    Convergence         Total energy    Change
  ------------------------------------------------------------------------------
     1 OT DIIS     0.80E-01    2.0     0.00003050     -1103.2633676422 -1.10E+03
     2 OT DIIS     0.80E-01    2.5     0.00001706     -1103.2633886639 -2.10E-05
     3 OT DIIS     0.80E-01    2.5     0.00000740     -1103.2633984474 -9.78E-06
     4 OT DIIS     0.80E-01    2.5     0.00000249     -1103.2634007046 -2.26E-06
     5 OT DIIS     0.80E-01    2.5     0.00000065     -1103.2634009632 -2.59E-07

  *** SCF run converged in     5 steps ***


  Electronic density on regular grids:       -512.0000000051       -0.0000000051
  Core density on regular grids:              511.9999999832       -0.0000000168
  Total charge density on r-space grids:       -0.0000000219
  Total charge density g-space grids:          -0.0000000219

  Overlap energy of the core charge distribution:               0.00000184633975
  Self energy of the core charge distribution:              -2838.21791979120962
  Core Hamiltonian energy:                                    826.03004700955842
  Hartree energy:                                            1180.21778006038903
  Exchange-correlation energy:                               -271.04755165390714
  Dispersion energy:                                           -0.24575843440600

  Total energy:                                             -1103.26340096323565

  outer SCF iter =    1 RMS gradient =   0.65E-06 energy =      -1103.2634009632
  outer SCF loop converged in   1 iterations or    5 steps


 ENERGY| Total FORCE_EVAL ( QS ) energy [hartree]          -1103.263400978792333

 MD| ***************************************************************************
 MD| Step number                                                               6
 MD| Time [fs]                                                          3.000000
 MD| Conserved quantity [hartree]                            -0.110299990773E+04
 MD| ---------------------------------------------------------------------------
 MD|                                          Instantaneous             Averages
 MD| CPU time per MD step [s]                     19.358388            37.697255
 MD| Energy drift per atom [K]          -0.410489455607E-01  -0.197998667727E+00
 MD| Potential energy [hartree]         -0.110326340098E+04  -0.110327224620E+04
 MD| Kinetic energy [hartree]            0.261686134232E+00   0.271910297462E+00
 MD| Temperature [K]                             288.425295           299.694166
 MD| ***************************************************************************

 Number of electrons:                                                        512
 Number of occupied orbitals:                                                256
 Number of molecular orbitals:                                               256

 Number of orbital functions:                                               1472
 Number of independent orbital functions:                                   1472

 Extrapolation method: ASPC


 SCF WAVEFUNCTION OPTIMIZATION

  ----------------------------------- OT ---------------------------------------
  Minimizer      : DIIS                : direct inversion
                                         in the iterative subspace
                                         using   7 DIIS vectors
                                         safer DIIS on
  Preconditioner : FULL_SINGLE_INVERSE : inversion of 
                                         H + eS - 2*(Sc)(c^T*H*c+const)(Sc)^T
  Precond_solver : DEFAULT
  stepsize       :    0.08000000                  energy_gap     :    0.08000000
  eps_taylor     :   0.10000E-15                  max_taylor     :             4
  ----------------------------------- OT ---------------------------------------

  Step     Update method      Time    Convergence         Total energy    Change
  ------------------------------------------------------------------------------
     1 OT DIIS     0.80E-01    2.0     0.00003170     -1103.2579482098 -1.10E+03
     2 OT DIIS     0.80E-01    2.5     0.00001779     -1103.2579709607 -2.28E-05
     3 OT DIIS     0.80E-01    2.5     0.00000766     -1103.2579816572 -1.07E-05
     4 OT DIIS     0.80E-01    2.5     0.00000259     -1103.2579840874 -2.43E-06
     5 OT DIIS     0.80E-01    2.6     0.00000068     -1103.2579843665 -2.79E-07

  *** SCF run converged in     5 steps ***


  Electronic density on regular grids:       -512.0000000046       -0.0000000046
  Core density on regular grids:              511.9999999832       -0.0000000168
  Total charge density on r-space grids:       -0.0000000214
  Total charge density g-space grids:          -0.0000000214

  Overlap energy of the core charge distribution:               0.00000181412943
  Self energy of the core charge distribution:              -2838.21791979120962
  Core Hamiltonian energy:                                    825.79470965141923
  Hartree energy:                                            1180.39188721284063
  Exchange-correlation energy:                               -270.98088706951773
  Dispersion energy:                                           -0.24577618411729

  Total energy:                                             -1103.25798436645505

  outer SCF iter =    1 RMS gradient =   0.68E-06 energy =      -1103.2579843665
  outer SCF loop converged in   1 iterations or    5 steps


 ENERGY| Total FORCE_EVAL ( QS ) energy [hartree]          -1103.257984383480562

 MD| ***************************************************************************
 MD| Step number                                                               7
 MD| Time [fs]                                                          3.500000
 MD| Conserved quantity [hartree]                            -0.110299978661E+04
 MD| ---------------------------------------------------------------------------
 MD|                                          Instantaneous             Averages
 MD| CPU time per MD step [s]                     19.509501            35.099005
 MD| Energy drift per atom [K]           0.158159691339E+00  -0.147118902146E+00
 MD| Potential energy [hartree]         -0.110325798438E+04  -0.110327020880E+04
 MD| Kinetic energy [hartree]            0.256923210384E+00   0.269769285023E+00
 MD| Temperature [K]                             283.175694           297.334384
 MD| ***************************************************************************

 Number of electrons:                                                        512
 Number of occupied orbitals:                                                256
 Number of molecular orbitals:                                               256

 Number of orbital functions:                                               1472
 Number of independent orbital functions:                                   1472

 Extrapolation method: ASPC


 SCF WAVEFUNCTION OPTIMIZATION

  ----------------------------------- OT ---------------------------------------
  Minimizer      : DIIS                : direct inversion
                                         in the iterative subspace
                                         using   7 DIIS vectors
                                         safer DIIS on
  Preconditioner : FULL_SINGLE_INVERSE : inversion of 
                                         H + eS - 2*(Sc)(c^T*H*c+const)(Sc)^T
  Precond_solver : DEFAULT
  stepsize       :    0.08000000                  energy_gap     :    0.08000000
  eps_taylor     :   0.10000E-15                  max_taylor     :             4
  ----------------------------------- OT ---------------------------------------

  Step     Update method      Time    Convergence         Total energy    Change
  ------------------------------------------------------------------------------
     1 OT DIIS     0.80E-01    2.1     0.00003211     -1103.2547661944 -1.10E+03
     2 OT DIIS     0.80E-01    2.5     0.00001810     -1103.2547896184 -2.34E-05
     3 OT DIIS     0.80E-01    2.5     0.00000768     -1103.2548007800 -1.12E-05
     4 OT DIIS     0.80E-01    2.5     0.00000261     -1103.2548032268 -2.45E-06
     5 OT DIIS     0.80E-01    2.5     0.00000069     -1103.2548035126 -2.86E-07

  *** SCF run converged in     5 steps ***


  Electronic density on regular grids:       -512.0000000036       -0.0000000036
  Core density on regular grids:              511.9999999831       -0.0000000169
  Total charge density on r-space grids:       -0.0000000205
  Total charge density g-space grids:          -0.0000000205

  Overlap energy of the core charge distribution:               0.00000179358034
  Self energy of the core charge distribution:              -2838.21791979120962
  Core Hamiltonian energy:                                    825.61703707426477
  Hartree energy:                                            1180.52308235052556
  Exchange-correlation energy:                               -270.93120375816926
  Dispersion energy:                                           -0.24580118157502

  Total energy:                                             -1103.25480351258307

  outer SCF iter =    1 RMS gradient =   0.69E-06 energy =      -1103.2548035126
  outer SCF loop converged in   1 iterations or    5 steps


 ENERGY| Total FORCE_EVAL ( QS ) energy [hartree]          -1103.254803529867786

 MD| ***************************************************************************
 MD| Step number                                                               8
 MD| Time [fs]                                                          4.000000
 MD| Conserved quantity [hartree]                            -0.110299969108E+04
 MD| ---------------------------------------------------------------------------
 MD|                                          Instantaneous             Averages
 MD| CPU time per MD step [s]                     19.478444            33.146434
 MD| Energy drift per atom [K]           0.315258493455E+00  -0.893217276957E-01
 MD| Potential energy [hartree]         -0.110325480353E+04  -0.110326828314E+04
 MD| Kinetic energy [hartree]            0.253944678958E+00   0.267791209265E+00
 MD| Temperature [K]                             279.892815           295.154188
 MD| ***************************************************************************

 Number of electrons:                                                        512
 Number of occupied orbitals:                                                256
 Number of molecular orbitals:                                               256

 Number of orbital functions:                                               1472
 Number of independent orbital functions:                                   1472

 Extrapolation method: ASPC


 SCF WAVEFUNCTION OPTIMIZATION

  ----------------------------------- OT ---------------------------------------
  Minimizer      : DIIS                : direct inversion
                                         in the iterative subspace
                                         using   7 DIIS vectors
                                         safer DIIS on
  Preconditioner : FULL_SINGLE_INVERSE : inversion of 
                                         H + eS - 2*(Sc)(c^T*H*c+const)(Sc)^T
  Precond_solver : DEFAULT
  stepsize       :    0.08000000                  energy_gap     :    0.08000000
  eps_taylor     :   0.10000E-15                  max_taylor     :             4
  ----------------------------------- OT ---------------------------------------

  Step     Update method      Time    Convergence         Total energy    Change
  ------------------------------------------------------------------------------
     1 OT DIIS     0.80E-01    2.1     0.00003217     -1103.2551595477 -1.10E+03
     2 OT DIIS     0.80E-01    2.5     0.00001818     -1103.2551831219 -2.36E-05
     3 OT DIIS     0.80E-01    2.5     0.00000760     -1103.2551944614 -1.13E-05
     4 OT DIIS     0.80E-01    2.5     0.00000261     -1103.2551968477 -2.39E-06
     5 OT DIIS     0.80E-01    2.5     0.00000068     -1103.2551971323 -2.85E-07

  *** SCF run converged in     5 steps ***


  Electronic density on regular grids:       -512.0000000024       -0.0000000024
  Core density on regular grids:              511.9999999831       -0.0000000169
  Total charge density on r-space grids:       -0.0000000192
  Total charge density g-space grids:          -0.0000000192

  Overlap energy of the core charge distribution:               0.00000176086427
  Self energy of the core charge distribution:              -2838.21791979120962
  Core Hamiltonian energy:                                    825.50711431549996
  Hartree energy:                                            1180.60315320654331
  Exchange-correlation energy:                               -270.90171374512920
  Dispersion energy:                                           -0.24583287882773

  Total energy:                                             -1103.25519713225913

  outer SCF iter =    1 RMS gradient =   0.68E-06 energy =      -1103.2551971323
  outer SCF loop converged in   1 iterations or    5 steps


 ENERGY| Total FORCE_EVAL ( QS ) energy [hartree]          -1103.255197149310106

 MD| ***************************************************************************
 MD| Step number                                                               9
 MD| Time [fs]                                                          4.500000
 MD| Conserved quantity [hartree]                            -0.110299967517E+04
 MD| ---------------------------------------------------------------------------
 MD|                                          Instantaneous             Averages
 MD| CPU time per MD step [s]                     19.559501            31.636775
 MD| Energy drift per atom [K]           0.341427760554E+00  -0.414606734458E-01
 MD| Potential energy [hartree]         -0.110325519715E+04  -0.110326682914E+04
 MD| Kinetic energy [hartree]            0.254285428499E+00   0.266290566957E+00
 MD| Temperature [K]                             280.268383           293.500209
 MD| ***************************************************************************

 Number of electrons:                                                        512
 Number of occupied orbitals:                                                256
 Number of molecular orbitals:                                               256

 Number of orbital functions:                                               1472
 Number of independent orbital functions:                                   1472

 Extrapolation method: ASPC


 SCF WAVEFUNCTION OPTIMIZATION

  ----------------------------------- OT ---------------------------------------
  Minimizer      : DIIS                : direct inversion
                                         in the iterative subspace
                                         using   7 DIIS vectors
                                         safer DIIS on
  Preconditioner : FULL_SINGLE_INVERSE : inversion of 
                                         H + eS - 2*(Sc)(c^T*H*c+const)(Sc)^T
  Precond_solver : DEFAULT
  stepsize       :    0.08000000                  energy_gap     :    0.08000000
  eps_taylor     :   0.10000E-15                  max_taylor     :             4
  ----------------------------------- OT ---------------------------------------

  Step     Update method      Time    Convergence         Total energy    Change
  ------------------------------------------------------------------------------
     1 OT DIIS     0.80E-01    2.1     0.00003168     -1103.2592507593 -1.10E+03
     2 OT DIIS     0.80E-01    2.5     0.00001791     -1103.2592736363 -2.29E-05
     3 OT DIIS     0.80E-01    2.5     0.00000740     -1103.2592846688 -1.10E-05
     4 OT DIIS     0.80E-01    2.5     0.00000257     -1103.2592869224 -2.25E-06
     5 OT DIIS     0.80E-01    2.5     0.00000067     -1103.2592871965 -2.74E-07

  *** SCF run converged in     5 steps ***


  Electronic density on regular grids:       -512.0000000009       -0.0000000009
  Core density on regular grids:              511.9999999831       -0.0000000169
  Total charge density on r-space grids:       -0.0000000178
  Total charge density g-space grids:          -0.0000000178

  Overlap energy of the core charge distribution:               0.00000170363381
  Self energy of the core charge distribution:              -2838.21791979120962
  Core Hamiltonian energy:                                    825.47524978286617
  Hartree energy:                                            1180.62460786528572
  Exchange-correlation energy:                               -270.89535555496195
  Dispersion energy:                                           -0.24587120207665

  Total energy:                                             -1103.25928719646254

  outer SCF iter =    1 RMS gradient =   0.67E-06 energy =      -1103.2592871965
  outer SCF loop converged in   1 iterations or    5 steps


 ENERGY| Total FORCE_EVAL ( QS ) energy [hartree]          -1103.259287212951676

 MD| ***************************************************************************
 MD| Step number                                                              10
 MD| Time [fs]                                                          5.000000
 MD| Conserved quantity [hartree]                            -0.110299976516E+04
 MD| ---------------------------------------------------------------------------
 MD|                                          Instantaneous             Averages
 MD| CPU time per MD step [s]                     19.550113            30.428109
 MD| Energy drift per atom [K]           0.193437137819E+00  -0.179708923193E-01
 MD| Potential energy [hartree]         -0.110325928721E+04  -0.110326607495E+04
 MD| Kinetic energy [hartree]            0.258021715455E+00   0.265463681807E+00
 MD| Temperature [K]                             284.386444           292.588833
 MD| ***************************************************************************

 Number of electrons:                                                        512
 Number of occupied orbitals:                                                256
 Number of molecular orbitals:                                               256

 Number of orbital functions:                                               1472
 Number of independent orbital functions:                                   1472

 Extrapolation method: ASPC


 SCF WAVEFUNCTION OPTIMIZATION

  ----------------------------------- OT ---------------------------------------
  Minimizer      : DIIS                : direct inversion
                                         in the iterative subspace
                                         using   7 DIIS vectors
                                         safer DIIS on
  Preconditioner : FULL_SINGLE_INVERSE : inversion of 
                                         H + eS - 2*(Sc)(c^T*H*c+const)(Sc)^T
  Precond_solver : DEFAULT
  stepsize       :    0.08000000                  energy_gap     :    0.08000000
  eps_taylor     :   0.10000E-15                  max_taylor     :             4
  ----------------------------------- OT ---------------------------------------

  Step     Update method      Time    Convergence         Total energy    Change
  ------------------------------------------------------------------------------
     1 OT DIIS     0.80E-01    2.0     0.00002929     -1103.2656126968 -1.10E+03
     2 OT DIIS     0.80E-01    2.5     0.00001653     -1103.2656322319 -1.95E-05
     3 OT DIIS     0.80E-01    2.5     0.00000685     -1103.2656416042 -9.37E-06
     4 OT DIIS     0.80E-01    2.5     0.00000238     -1103.2656435262 -1.92E-06
     5 OT DIIS     0.80E-01    2.5     0.00000062     -1103.2656437612 -2.35E-07

  *** SCF run converged in     5 steps ***


  Electronic density on regular grids:       -511.9999999995        0.0000000005
  Core density on regular grids:              511.9999999831       -0.0000000169
  Total charge density on r-space grids:       -0.0000000164
  Total charge density g-space grids:          -0.0000000164

  Overlap energy of the core charge distribution:               0.00000163856790
  Self energy of the core charge distribution:              -2838.21791979120962
  Core Hamiltonian energy:                                    825.53040944469910
  Hartree energy:                                            1180.58205050123775
  Exchange-correlation energy:                               -270.91426958673071
  Dispersion energy:                                           -0.24591596772197

  Total energy:                                             -1103.26564376115721

  outer SCF iter =    1 RMS gradient =   0.62E-06 energy =      -1103.2656437612
  outer SCF loop converged in   1 iterations or    5 steps


 ENERGY| Total FORCE_EVAL ( QS ) energy [hartree]          -1103.265643775385115

 MD| ***************************************************************************
 MD| Step number                                                              11
 MD| Time [fs]                                                          5.500000
 MD| Conserved quantity [hartree]                            -0.110299993440E+04
 MD| ---------------------------------------------------------------------------
 MD|                                          Instantaneous             Averages
 MD| CPU time per MD step [s]                     19.498555            29.434513
 MD| Energy drift per atom [K]          -0.849133641795E-01  -0.240565715793E-01
 MD| Potential energy [hartree]         -0.110326564378E+04  -0.110326603575E+04
 MD| Kinetic energy [hartree]            0.264386986851E+00   0.265365800447E+00
 MD| Temperature [K]                             291.402121           292.480950
 MD| ***************************************************************************

 Number of electrons:                                                        512
 Number of occupied orbitals:                                                256
 Number of molecular orbitals:                                               256

 Number of orbital functions:                                               1472
 Number of independent orbital functions:                                   1472

 Extrapolation method: ASPC


 SCF WAVEFUNCTION OPTIMIZATION

  ----------------------------------- OT ---------------------------------------
  Minimizer      : DIIS                : direct inversion
                                         in the iterative subspace
                                         using   7 DIIS vectors
                                         safer DIIS on
  Preconditioner : FULL_SINGLE_INVERSE : inversion of 
                                         H + eS - 2*(Sc)(c^T*H*c+const)(Sc)^T
  Precond_solver : DEFAULT
  stepsize       :    0.08000000                  energy_gap     :    0.08000000
  eps_taylor     :   0.10000E-15                  max_taylor     :             4
  ----------------------------------- OT ---------------------------------------

  Step     Update method      Time    Convergence         Total energy    Change
  ------------------------------------------------------------------------------
     1 OT DIIS     0.80E-01    2.1     0.00002761     -1103.2716322994 -1.10E+03
     2 OT DIIS     0.80E-01    2.5     0.00001551     -1103.2716496097 -1.73E-05
     3 OT DIIS     0.80E-01    2.5     0.00000654     -1103.2716577937 -8.18E-06
     4 OT DIIS     0.80E-01    2.5     0.00000225     -1103.2716595463 -1.75E-06
     5 OT DIIS     0.80E-01    2.6     0.00000059     -1103.2716597554 -2.09E-07

  *** SCF run converged in     5 steps ***


  Electronic density on regular grids:       -511.9999999986        0.0000000014
  Core density on regular grids:              511.9999999832       -0.0000000168
  Total charge density on r-space grids:       -0.0000000155
  Total charge density g-space grids:          -0.0000000155

  Overlap energy of the core charge distribution:               0.00000160541306
  Self energy of the core charge distribution:              -2838.21791979120962
  Core Hamiltonian energy:                                    825.67830453270278
  Hartree energy:                                            1180.47327661741019
  Exchange-correlation energy:                               -270.95935640542490
  Dispersion energy:                                           -0.24596631433044

  Total energy:                                             -1103.27165975543858

  outer SCF iter =    1 RMS gradient =   0.59E-06 energy =      -1103.2716597554
  outer SCF loop converged in   1 iterations or    5 steps


 ENERGY| Total FORCE_EVAL ( QS ) energy [hartree]          -1103.271659768136942

 MD| ***************************************************************************
 MD| Step number                                                              12
 MD| Time [fs]                                                          6.000000
 MD| Conserved quantity [hartree]                            -0.110300011296E+04
 MD| ---------------------------------------------------------------------------
 MD|                                          Instantaneous             Averages
 MD| CPU time per MD step [s]                     19.583431            28.613590
 MD| Energy drift per atom [K]          -0.378588295838E+00  -0.536008819342E-01
 MD| Potential energy [hartree]         -0.110327165977E+04  -0.110326650442E+04
 MD| Kinetic energy [hartree]            0.271638770008E+00   0.265888547911E+00
 MD| Temperature [K]                             299.394893           293.057112
 MD| ***************************************************************************

 Number of electrons:                                                        512
 Number of occupied orbitals:                                                256
 Number of molecular orbitals:                                               256

 Number of orbital functions:                                               1472
 Number of independent orbital functions:                                   1472

 Extrapolation method: ASPC


 SCF WAVEFUNCTION OPTIMIZATION

  ----------------------------------- OT ---------------------------------------
  Minimizer      : DIIS                : direct inversion
                                         in the iterative subspace
                                         using   7 DIIS vectors
                                         safer DIIS on
  Preconditioner : FULL_SINGLE_INVERSE : inversion of 
                                         H + eS - 2*(Sc)(c^T*H*c+const)(Sc)^T
  Precond_solver : DEFAULT
  stepsize       :    0.08000000                  energy_gap     :    0.08000000
  eps_taylor     :   0.10000E-15                  max_taylor     :             4
  ----------------------------------- OT ---------------------------------------

  Step     Update method      Time    Convergence         Total energy    Change
  ------------------------------------------------------------------------------
     1 OT DIIS     0.80E-01    2.1     0.00002745     -1103.2745284938 -1.10E+03
     2 OT DIIS     0.80E-01    2.5     0.00001530     -1103.2745454798 -1.70E-05
     3 OT DIIS     0.80E-01    2.6     0.00000670     -1103.2745532943 -7.81E-06
     4 OT DIIS     0.80E-01    2.8     0.00000224     -1103.2745551378 -1.84E-06
     5 OT DIIS     0.80E-01    2.6     0.00000058     -1103.2745553450 -2.07E-07

  *** SCF run converged in     5 steps ***


  Electronic density on regular grids:       -511.9999999985        0.0000000015
  Core density on regular grids:              511.9999999832       -0.0000000168
  Total charge density on r-space grids:       -0.0000000154
  Total charge density g-space grids:          -0.0000000154

  Overlap energy of the core charge distribution:               0.00000164018298
  Self energy of the core charge distribution:              -2838.21791979120962
  Core Hamiltonian energy:                                    825.91551342260107
  Hartree energy:                                            1180.30273384587031
  Exchange-correlation energy:                               -271.02886490623177
  Dispersion energy:                                           -0.24601955617349

  Total energy:                                             -1103.27455534496016

  outer SCF iter =    1 RMS gradient =   0.58E-06 energy =      -1103.2745553450
  outer SCF loop converged in   1 iterations or    5 steps


 ENERGY| Total FORCE_EVAL ( QS ) energy [hartree]          -1103.274555357435020

 MD| ***************************************************************************
 MD| Step number                                                              13
 MD| Time [fs]                                                          6.500000
 MD| Conserved quantity [hartree]                            -0.110300021884E+04
 MD| ---------------------------------------------------------------------------
 MD|                                          Instantaneous             Averages
 MD| CPU time per MD step [s]                     19.983495            27.949736
 MD| Energy drift per atom [K]          -0.552714954773E+00  -0.919942721526E-01
 MD| Potential energy [hartree]         -0.110327455536E+04  -0.110326712372E+04
 MD| Kinetic energy [hartree]            0.273589374453E+00   0.266480919183E+00
 MD| Temperature [K]                             301.544811           293.710012
 MD| ***************************************************************************

 Number of electrons:                                                        512
 Number of occupied orbitals:                                                256
 Number of molecular orbitals:                                               256

 Number of orbital functions:                                               1472
 Number of independent orbital functions:                                   1472

 Extrapolation method: ASPC


 SCF WAVEFUNCTION OPTIMIZATION

  ----------------------------------- OT ---------------------------------------
  Minimizer      : DIIS                : direct inversion
                                         in the iterative subspace
                                         using   7 DIIS vectors
                                         safer DIIS on
  Preconditioner : FULL_SINGLE_INVERSE : inversion of 
                                         H + eS - 2*(Sc)(c^T*H*c+const)(Sc)^T
  Precond_solver : DEFAULT
  stepsize       :    0.08000000                  energy_gap     :    0.08000000
  eps_taylor     :   0.10000E-15                  max_taylor     :             4
  ----------------------------------- OT ---------------------------------------

  Step     Update method      Time    Convergence         Total energy    Change
  ------------------------------------------------------------------------------
     1 OT DIIS     0.80E-01    2.1     0.00002794     -1103.2727608410 -1.10E+03
     2 OT DIIS     0.80E-01    2.5     0.00001548     -1103.2727783537 -1.75E-05
     3 OT DIIS     0.80E-01    2.5     0.00000692     -1103.2727862701 -7.92E-06
     4 OT DIIS     0.80E-01    2.5     0.00000228     -1103.2727882430 -1.97E-06
     5 OT DIIS     0.80E-01    2.6     0.00000059     -1103.2727884579 -2.15E-07

  *** SCF run converged in     5 steps ***


  Electronic density on regular grids:       -511.9999999993        0.0000000007
  Core density on regular grids:              511.9999999832       -0.0000000168
  Total charge density on r-space grids:       -0.0000000161
  Total charge density g-space grids:          -0.0000000161

  Overlap energy of the core charge distribution:               0.00000176006458
  Self energy of the core charge distribution:              -2838.21791979120962
  Core Hamiltonian energy:                                    826.22414319012660
  Hartree energy:                                            1180.08431394263880
  Exchange-correlation energy:                               -271.11725636374484
  Dispersion energy:                                           -0.24607119576978

  Total energy:                                             -1103.27278845789419

  outer SCF iter =    1 RMS gradient =   0.59E-06 energy =      -1103.2727884579
  outer SCF loop converged in   1 iterations or    5 steps


 ENERGY| Total FORCE_EVAL ( QS ) energy [hartree]          -1103.272788470603700

 MD| ***************************************************************************
 MD| Step number                                                              14
 MD| Time [fs]                                                          7.000000
 MD| Conserved quantity [hartree]                            -0.110300019260E+04
 MD| ---------------------------------------------------------------------------
 MD|                                          Instantaneous             Averages
 MD| CPU time per MD step [s]                     19.613477            27.354289
 MD| Energy drift per atom [K]          -0.509569118788E+00  -0.121821046912E+00
 MD| Potential energy [hartree]         -0.110327278847E+04  -0.110326752835E+04
 MD| Kinetic energy [hartree]            0.271109776735E+00   0.266811551866E+00
 MD| Temperature [K]                             298.811847           294.074429
 MD| ***************************************************************************

 Number of electrons:                                                        512
 Number of occupied orbitals:                                                256
 Number of molecular orbitals:                                               256

 Number of orbital functions:                                               1472
 Number of independent orbital functions:                                   1472

 Extrapolation method: ASPC


 SCF WAVEFUNCTION OPTIMIZATION

  ----------------------------------- OT ---------------------------------------
  Minimizer      : DIIS                : direct inversion
                                         in the iterative subspace
                                         using   7 DIIS vectors
                                         safer DIIS on
  Preconditioner : FULL_SINGLE_INVERSE : inversion of 
                                         H + eS - 2*(Sc)(c^T*H*c+const)(Sc)^T
  Precond_solver : DEFAULT
  stepsize       :    0.08000000                  energy_gap     :    0.08000000
  eps_taylor     :   0.10000E-15                  max_taylor     :             4
  ----------------------------------- OT ---------------------------------------

  Step     Update method      Time    Convergence         Total energy    Change
  ------------------------------------------------------------------------------
     1 OT DIIS     0.80E-01    2.0     0.00003008     -1103.2669251878 -1.10E+03
     2 OT DIIS     0.80E-01    2.5     0.00001666     -1103.2669454881 -2.03E-05
     3 OT DIIS     0.80E-01    2.5     0.00000739     -1103.2669546592 -9.17E-06
     4 OT DIIS     0.80E-01    2.5     0.00000244     -1103.2669569048 -2.25E-06
     5 OT DIIS     0.80E-01    2.6     0.00000063     -1103.2669571508 -2.46E-07

  *** SCF run converged in     5 steps ***


  Electronic density on regular grids:       -512.0000000010       -0.0000000010
  Core density on regular grids:              511.9999999832       -0.0000000168
  Total charge density on r-space grids:       -0.0000000178
  Total charge density g-space grids:          -0.0000000178

  Overlap energy of the core charge distribution:               0.00000195653660
  Self energy of the core charge distribution:              -2838.21791979120962
  Core Hamiltonian energy:                                    826.57105498919191
  Hartree energy:                                            1179.84127264205358
  Exchange-correlation energy:                               -271.21525118563818
  Dispersion energy:                                           -0.24611576175210

  Total energy:                                             -1103.26695715081814

  outer SCF iter =    1 RMS gradient =   0.63E-06 energy =      -1103.2669571508
  outer SCF loop converged in   1 iterations or    5 steps


 ENERGY| Total FORCE_EVAL ( QS ) energy [hartree]          -1103.266957165134500

 MD| ***************************************************************************
 MD| Step number                                                              15
 MD| Time [fs]                                                          7.500000
 MD| Conserved quantity [hartree]                            -0.110300002988E+04
 MD| ---------------------------------------------------------------------------
 MD|                                          Instantaneous             Averages
 MD| CPU time per MD step [s]                     19.622826            26.838858
 MD| Energy drift per atom [K]          -0.241938179084E+00  -0.129828855724E+00
 MD| Potential energy [hartree]         -0.110326695717E+04  -0.110326749027E+04
 MD| Kinetic energy [hartree]            0.267545628558E+00   0.266860490312E+00
 MD| Temperature [K]                             294.883514           294.128368
 MD| ***************************************************************************

 Number of electrons:                                                        512
 Number of occupied orbitals:                                                256
 Number of molecular orbitals:                                               256

 Number of orbital functions:                                               1472
 Number of independent orbital functions:                                   1472

 Extrapolation method: ASPC


 SCF WAVEFUNCTION OPTIMIZATION

  ----------------------------------- OT ---------------------------------------
  Minimizer      : DIIS                : direct inversion
                                         in the iterative subspace
                                         using   7 DIIS vectors
                                         safer DIIS on
  Preconditioner : FULL_SINGLE_INVERSE : inversion of 
                                         H + eS - 2*(Sc)(c^T*H*c+const)(Sc)^T
  Precond_solver : DEFAULT
  stepsize       :    0.08000000                  energy_gap     :    0.08000000
  eps_taylor     :   0.10000E-15                  max_taylor     :             4
  ----------------------------------- OT ---------------------------------------

  Step     Update method      Time    Convergence         Total energy    Change
  ------------------------------------------------------------------------------
     1 OT DIIS     0.80E-01    2.1     0.00003263     -1103.2596316853 -1.10E+03
     2 OT DIIS     0.80E-01    2.5     0.00001813     -1103.2596556588 -2.40E-05
     3 OT DIIS     0.80E-01    2.6     0.00000787     -1103.2596666211 -1.10E-05
     4 OT DIIS     0.80E-01    2.6     0.00000263     -1103.2596691613 -2.54E-06
[...]
 MD| ***************************************************************************

 Number of electrons:                                                        512
 Number of occupied orbitals:                                                256
 Number of molecular orbitals:                                               256

 Number of orbital functions:                                               1472
 Number of independent orbital functions:                                   1472

 Extrapolation method: ASPC


 SCF WAVEFUNCTION OPTIMIZATION

  ----------------------------------- OT ---------------------------------------
  Minimizer      : DIIS                : direct inversion
                                         in the iterative subspace
                                         using   7 DIIS vectors
                                         safer DIIS on
  Preconditioner : FULL_SINGLE_INVERSE : inversion of 
                                         H + eS - 2*(Sc)(c^T*H*c+const)(Sc)^T
  Precond_solver : DEFAULT
  stepsize       :    0.08000000                  energy_gap     :    0.08000000
  eps_taylor     :   0.10000E-15                  max_taylor     :             4
  ----------------------------------- OT ---------------------------------------

  Step     Update method      Time    Convergence         Total energy    Change
  ------------------------------------------------------------------------------
     1 OT DIIS     0.80E-01    2.3     0.00003151     -1103.2848594753 -1.10E+03
     2 OT DIIS     0.80E-01    2.8     0.00001777     -1103.2848821261 -2.27E-05
     3 OT DIIS     0.80E-01    2.8     0.00000714     -1103.2848929582 -1.08E-05
     4 OT DIIS     0.80E-01    2.8     0.00000258     -1103.2848949875 -2.03E-06
     5 OT DIIS     0.80E-01    2.8     0.00000066     -1103.2848952589 -2.71E-07

 *** SCF run terminated - exceeded requested execution time:    1800.000 seconds.

 *** Execution time now:     1802.015 seconds.

  *** SCF run converged in     5 steps ***


  Electronic density on regular grids:       -511.9999999871        0.0000000129
  Core density on regular grids:              511.9999999832       -0.0000000168
  Total charge density on r-space grids:       -0.0000000040
  Total charge density g-space grids:          -0.0000000040

  Overlap energy of the core charge distribution:               0.00000211227994
  Self energy of the core charge distribution:              -2838.21791979120962
  Core Hamiltonian energy:                                    826.92437422212936
  Hartree energy:                                            1179.56487514722653
  Exchange-correlation energy:                               -271.31062447746524
  Dispersion energy:                                           -0.24560247183678

  Total energy:                                             -1103.28489525887562

  outer SCF iter =    1 RMS gradient =   0.66E-06 energy =      -1103.2848952589
  outer SCF loop converged in   1 iterations or    5 steps


 ENERGY| Total FORCE_EVAL ( QS ) energy [hartree]          -1103.284895274612154

 *** MD run terminated - exceeded requested execution time:    1800.000 seconds.

 *** Execution time now:     1806.588 seconds.

 -------------------------------------------------------------------------------
 -                                                                             -
 -                                DBCSR STATISTICS                             -
 -                                                                             -
 -------------------------------------------------------------------------------
 COUNTER                                    TOTAL       BLAS       SMM       ACC
 flops    64 x   256 x   256           7373586432     100.0%      0.0%      0.0%     
 flops     5 x    32 x    32           7927234560     100.0%      0.0%      0.0%     
 flops    32 x    32 x  1472           9116319744     100.0%      0.0%      0.0%     
 flops    13 x    32 x    32          10305404928     100.0%      0.0%      0.0%     
 flops    32 x   256 x   256          22120759296     100.0%      0.0%      0.0%     
 flops     5 x     5 x   256          73973760000     100.0%      0.0%      0.0%     
 flops    64 x   256 x  1472          82770395136     100.0%      0.0%      0.0%     
 flops    13 x     5 x   256          95420416000     100.0%      0.0%      0.0%     
 flops     5 x    13 x   256          95420416000     100.0%      0.0%      0.0%     
 flops   189 x   256 x   256         103153139712     100.0%      0.0%      0.0%     
 flops   194 x   256 x   256         105882058752     100.0%      0.0%      0.0%     
 flops    13 x    13 x   256         123614073856     100.0%      0.0%      0.0%     
 flops   189 x   256 x  1472         152128585728     100.0%      0.0%      0.0%     
 flops   194 x   256 x  1472         156153151488     100.0%      0.0%      0.0%     
 flops   197 x   256 x   256         161279115264     100.0%      0.0%      0.0%     
 flops   197 x   256 x  1472         237851836416     100.0%      0.0%      0.0%     
 flops    32 x   256 x  1472         248311185408     100.0%      0.0%      0.0%     
 flops     5 x    32 x     5         343723212800     100.0%      0.0%      0.0%     
 flops    13 x    32 x     5         446840176640     100.0%      0.0%      0.0%     
 flops     5 x    32 x    13         446840176640     100.0%      0.0%      0.0%     
 flops    13 x    32 x    13         568275581952     100.0%      0.0%      0.0%     
 flops inhomo. stacks                133043650560     100.0%      0.0%      0.0%
 flops total                         3.631524E+12     100.0%      0.0%      0.0%
 flops max/rank                      3.631524E+12     100.0%      0.0%      0.0%
 matmuls inhomo. stacks                      2616     100.0%      0.0%      0.0%
 matmuls total                          496339823     100.0%      0.0%      0.0%
 number of processed stacks                606210     100.0%      0.0%      0.0%
 average stack size                                   818.8       0.0       0.0
 marketing flops                     4.014387E+12
 -------------------------------------------------------------------------------
 # multiplications                           7886
 max memory usage/rank               0.000000E+00
 # max total images/rank                        1
 # max 3D layers                                1
 # MPI messages exchanged                       0
 -------------------------------------------------------------------------------
 -                                                                             -
 -                      DBCSR MESSAGE PASSING PERFORMANCE                      -
 -                                                                             -
 -------------------------------------------------------------------------------
 ROUTINE             CALLS      AVE VOLUME [Bytes]
 MP_Bcast               22                     12.
 MP_Allreduce        40322                      9.
 MP_Alltoall         40234                1196098.
 MP_ISend            31208                 121360.
 MP_IRecv            31208                 121360.
 -------------------------------------------------------------------------------

 -------------------------------------------------------------------------------
 -                                                                             -
 -                                DBM STATISTICS                               -
 -                                                                             -
 -------------------------------------------------------------------------------
    M  x    N  x    K                                          COUNT     PERCENT
 -------------------------------------------------------------------------------

 -------------------------------------------------------------------------------
 -                                                                             -
 -                                GRID STATISTICS                              -
 -                                                                             -
 -------------------------------------------------------------------------------
 LP    KERNEL             BACKEND                              COUNT     PERCENT
 2     collocate ortho    CPU                               72601745      27.74%
 2     integrate ortho    CPU                               61296545      23.42%
 3     integrate ortho    CPU                               53415821      20.41%
 3     collocate ortho    CPU                               49877270      19.06%
 4     integrate ortho    CPU                               14841392       5.67%
 4     collocate ortho    CPU                                8379552       3.20%
 5     integrate ortho    CPU                                1304809       0.50%
 0     collocate general  CPU                                  15936       0.01%
 1     integrate general  CPU                                  15936       0.01%
 -------------------------------------------------------------------------------

 MEMORY| Estimated peak process memory [MiB]                                   0

 -------------------------------------------------------------------------------
 -                                                                             -
 -                         MESSAGE PASSING PERFORMANCE                         -
 -                                                                             -
 -------------------------------------------------------------------------------

 ROUTINE             CALLS      AVE VOLUME [Bytes]
 MP_Group                4
 MP_Bcast            13830                   4179.
 MP_Allreduce        43777                   3679.
 MP_Sync                34
 MP_comm_split          30
 -------------------------------------------------------------------------------


 -------------------------------------------------------------------------------
 -                                                                             -
 -                           R E F E R E N C E S                               -
 -                                                                             -
 -------------------------------------------------------------------------------
 
 CP2K version 2025.1, the CP2K developers group (2025).
 CP2K is freely available from https://www.cp2k.org/ .
 
 T. D. Kuehne, M. Iannuzzi, M. Del Ben, V. V. Rybkin, P. Seewald, F. Stein, T. 
 Laino, R. Z. Khaliullin, O. Schuett, F. Schiffmann, D. Golze, J. Wilhelm, S. 
 Chulkov, M. H. Bani-Hashemian, V. Weber, U. Borstnik, M. Taillefumier, A. S. 
 Jakobovits, A. Lazzaro, H. Pabst, T. Mueller, R. Schade, M. Guidon, S. 
 Andermatt, N. Holmberg, G. K. Schenter, A. Hehn, A. Bussy, F. Belleflamme, G. 
 Tabacchi, A. Gloess, M. Lass, I. Bethune, C. J. Mundy, C. Plessl, M. Watkins, 
 J. VandeVondele, M. Krack, J. Hutter.
 J. Chem. Phys. 152, 194103 (2020).
 CP2K: An electronic structure and molecular dynamics software package - 
 Quickstep: Efficient and accurate electronic structure calculations.
 https://doi.org/10.1063/5.0007045

 L. Goerigk, A. Hansen, C. Bauer, S. Ehrlich, A. Najibi, S. Grimme.
 Phys. Chem. Chem. Phys. 19, 32184-32215 (2017).
 A look at the density functional theory zoo with the advanced GMTKN55 database 
 for general main group thermochemistry, kinetics and noncovalent interactions.
 https://doi.org/10.1039/C7CP04913G

 O. Schuett, P. Messmer, J. Hutter, J. VandeVondele.
 Electronic Structure Calculations on Graphics Processing Units, 173-190 (2016).
 GPU-Accelerated Sparse Matrix-Matrix Multiplication for Linear Scaling Density 
 Functional Theory.
 https://doi.org/10.1002/9781118670712.ch8

 J. Hutter, M. Iannuzzi, F. Schiffmann, J. VandeVondele.
 WIREs Comput Mol Sci. 4, 15-25 (2014).
 CP2K: atomistic simulations of condensed matter systems.
 https://doi.org/10.1002/wcms.1159

 U. Borstnik, J. VandeVondele, V. Weber, J. Hutter.
 Parallel Comput. 40, 47-58 (2014).
 Sparse matrix multiplication: The distributed block-compressed sparse row 
 library.
 https://doi.org/10.1016/j.parco.2014.03.012

 S. Grimme, S. Ehrlich, L. Goerigk.
 J. Comput. Chem. 32, 1456 (2011).
 Effect of the damping function in dispersion corrected density functional 
 theory.
 https://doi.org/10.1002/jcc.21759

 S. Grimme, J. Antony, S. Ehrlich, H. Krieg.
 J. Chem. Phys. 132, 154104 (2010).
 A consistent and accurate ab initio parametrization of density functional 
 dispersion correction (DFT-D) for the 94 elements H-Pu.
 https://doi.org/10.1063/1.3382344

 G. Bussi, D. Donadio, M. Parrinello.
 J. Chem. Phys. 126, 014101 (2007).
 Canonical sampling through velocity rescaling.
 https://doi.org/10.1063/1.2408420

 J. VandeVondele, J. Hutter.
 J. Chem. Phys. 127, 114105 (2007).
 Gaussian basis sets for accurate calculations on molecular systems in gas and 
 condensed phases.
 https://doi.org/10.1063/1.2770708

 T. D. Khne, M. Krack, F. R. Mohamed, M. Parrinello.
 Phys. Rev. Lett. 98, 066401 (2007).
 Efficient and accurate Car-Parrinello-like approach to Born-Oppenheimer 
 molecular dynamics.
 https://doi.org/10.1103/PhysRevLett.98.066401

 J. VandeVondele, M. Krack, F. Mohamed, M. Parrinello, T. Chassaing, J. Hutter.
 Comput. Phys. Commun. 167, 103-128 (2005).
 QUICKSTEP: Fast and accurate density functional calculations using a mixed 
 Gaussian and plane waves approach.
 https://doi.org/10.1016/j.cpc.2004.12.014

 M. Krack.
 Theor. Chem. Acc. 114, 145-152 (2005).
 Pseudopotentials for H to Kr optimized for gradient-corrected 
 exchange-correlation functionals.
 https://doi.org/10.1007/s00214-005-0655-y

 M. Frigo, S. G. Johnson.
 Proc. IEEE 93, 216-231 (2005).
 The design and implementation of FFTW3.
 https://doi.org/10.1109/JPROC.2004.840301

 J. Kolafa.
 J. Comput. Chem. 25, 335-342 (2004).
 Time-reversible always stable predictor-corrector method for molecular dynamics 
 of polarizable molecules.
 https://doi.org/10.1002/jcc.10385

 J. VandeVondele, J. Hutter.
 J. Chem. Phys. 118, 4365-4369 (2003).
 An efficient orbital transformation method for electronic structure 
 calculations.
 https://doi.org/10.1063/1.1543154

 C. Hartwigsen, S. Goedecker, J. Hutter.
 Phys. Rev. B 58, 3641-3662 (1998).
 Relativistic separable dual-space Gaussian pseudopotentials from H to Rn.
 https://doi.org/10.1103/PhysRevB.58.3641

 G. Lippert, J. Hutter, M. Parrinello.
 Mol. Phys. 92, 477-487 (1997).
 A hybrid Gaussian and plane wave density functional scheme.
 https://doi.org/10.1080/002689797170220

 S. Goedecker, M. Teter, J. Hutter.
 Phys. Rev. B 54, 1703-1710 (1996).
 Separable dual-space Gaussian pseudopotentials.
 https://doi.org/10.1103/PhysRevB.54.1703

 J. P. Perdew, K. Burke, M. Ernzerhof.
 Phys. Rev. Lett. 77, 3865-3868 (1996).
 Generalized gradient approximation made simple.
 https://doi.org/10.1103/PhysRevLett.77.3865


 -------------------------------------------------------------------------------
 -                                                                             -
 -                                T I M I N G                                  -
 -                                                                             -
 -------------------------------------------------------------------------------
 SUBROUTINE                       CALLS  ASD         SELF TIME        TOTAL TIME
                                MAXIMUM       AVERAGE  MAXIMUM  AVERAGE  MAXIMUM
 CP2K                                 1  1.0    0.087    0.087 1806.683 1806.683
 qs_mol_dyn_low                       1  2.0    0.003    0.003 1806.085 1806.085
 qs_forces                           83  4.0    0.007    0.007 1805.879 1805.879
 velocity_verlet                     82  3.0    0.004    0.004 1706.235 1706.235
 qs_energies                         83  5.0    0.004    0.004 1530.707 1530.707
 scf_env_do_scf                      83  6.0    0.004    0.004 1258.027 1258.027
 scf_env_do_scf_inner_loop          450  6.9    0.030    0.030 1087.750 1087.750
 rebuild_ks_matrix                  533  8.5    0.001    0.001  803.875  803.875
 qs_ks_build_kohn_sham_matrix       533  9.5    0.039    0.039  803.874  803.874
 qs_ks_update_qs_env                534  7.9    0.002    0.002  652.550  652.550
 qs_rho_update_rho_low              533  8.1    0.001    0.001  559.642  559.642
 calculate_rho_elec                 533  9.1    9.429    9.429  559.641  559.641
 grid_collocate_task_list           533 10.1  502.494  502.494  502.494  502.494
 sum_up_and_integrate               533 10.5    0.005    0.005  499.114  499.114
 integrate_v_rspace                 533 11.5    0.470    0.470  498.208  498.208
 grid_integrate_task_list           533 12.5  473.303  473.303  473.303  473.303
 qs_vxc_create                      533 10.5    0.004    0.004  223.852  223.852
 xc_vxc_pw_create                   533 11.5    9.310    9.310  223.849  223.849
 fft_wrap_pw1pw2                   9144 12.9    0.069    0.069  214.536  214.536
 fft_wrap_pw1pw2_200               5946 14.2   17.780   17.780  205.914  205.914
 init_scf_loop                       84  7.0    0.001    0.001  169.877  169.877
 qs_energies_init_hamiltonians       83  6.0    0.001    0.001  153.442  153.442
 qs_ks_update_qs_env_forces          83  5.0    0.000    0.000  153.023  153.023
 dbcsr_multiply_generic            7886 12.4    0.640    0.640  150.788  150.788
 xc_rho_set_and_dset_create         533 12.5    3.794    3.794  127.802  127.802
 xc_pw_derive                      3198 13.5    0.015    0.015  125.838  125.838
 fft3d_s                           9145 14.9  125.608  125.608  125.618  125.618
 build_core_hamiltonian_matrix_      83  5.0    0.002    0.002  122.134  122.134
 init_scf_run                        83  6.0    0.001    0.001  115.546  115.546
 scf_env_initial_rho_setup           83  7.0    0.001    0.001  115.544  115.544
 wfi_extrapolate                     83  8.0    0.007    0.007  114.128  114.128
 multiply_cannon                   7886 13.4    1.157    1.157  108.594  108.594
 dbcsr_copy                       21592 13.0    1.337    1.337  107.588  107.588
 dbcsr_copy_into_existing           166  8.0  106.190  106.190  106.191  106.191
 multiply_cannon_loop              7886 14.4    0.693    0.693  105.182  105.182
 multiply_cannon_multrec           7886 15.4  104.271  104.271  104.487  104.487
 xc_pw_divergence                   533 12.5    0.008    0.008   85.024   85.024
 qs_scf_new_mos                     450  7.9    0.002    0.002   82.266   82.266
 qs_scf_loop_do_ot                  450  8.9    0.002    0.002   82.265   82.265
 build_core_hamiltonian_matrix       83  7.0    0.003    0.003   77.093   77.093
 ot_scf_mini                        450  9.9    0.006    0.006   74.247   74.247
 xc_functional_eval                 533 13.5    0.002    0.002   58.604   58.604
 pbe_lda_eval                       533 14.5   58.602   58.602   58.602   58.602
 density_rs2pw                      533 10.1    0.019    0.019   47.718   47.718
 prepare_preconditioner              84  8.0    0.000    0.000   42.117   42.117
 make_preconditioner                 84  9.0    0.001    0.001   42.117   42.117
 pw_scatter_s                      4797 15.2   39.964   39.964   39.964   39.964
 -------------------------------------------------------------------------------

 The number of warnings for this run is : 0
 
 -------------------------------------------------------------------------------
  **** **** ******  **  PROGRAM ENDED AT                 2025-09-04 10:36:07.257
 ***** ** ***  *** **   PROGRAM RAN ON            MacBook-Air-von-Michelle.local
 **    ****   ******    PROGRAM RAN BY                                  michelle
 ***** **    ** ** **   PROGRAM PROCESS ID                                 47562
  **** **  *******  **  PROGRAM STOPPED IN /Users/michelle/Desktop/Work/Conferen
                                           ces_Talks/SCrS2025/CP2K_exercises
