 DBCSR| CPU Multiplication driver                                           BLAS (U)
 DBCSR| Multrec recursion limit                                              512 (U)
 DBCSR| Multiplication stack size                                           1000 (D)
 DBCSR| Maximum elements for images                                    UNLIMITED (U)
 DBCSR| Multiplicative factor virtual images                                   1 (U)
 DBCSR| Use multiplication densification                                       T (D)
 DBCSR| Multiplication size stacks                                             3 (U)
 DBCSR| Use memory pool for CPU allocation                                     F (U)
 DBCSR| Number of 3D layers                                               SINGLE (U)
 DBCSR| Use MPI memory allocation                                              F (U)
 DBCSR| Use RMA algorithm                                                      F (U)
 DBCSR| Use Communication thread                                               T (U)
 DBCSR| Communication thread load                                             60 (D)
 DBCSR| MPI: My process id                                                     0
 DBCSR| MPI: Number of processes                                               1
 DBCSR| OMP: Current number of threads                                         8
 DBCSR| OMP: Max number of threads                                             8
 DBCSR| Split modifier for TAS multiplication algorithm                  1.0E+00 (U)


  **** **** ******  **  PROGRAM STARTED AT               2025-09-02 10:01:01.463
 ***** ** ***  *** **   PROGRAM STARTED ON        staff-205-210.eduroam.unibe.ch
 **    ****   ******    PROGRAM STARTED BY                              michelle
 ***** **    ** ** **   PROGRAM PROCESS ID                                 34614
  **** **  *******  **  PROGRAM STARTED IN /Users/michelle/Desktop/Work/Conferen
                                           ces_Talks/SCrS2025/CP2K_exercises

 CP2K| version string:                                       CP2K version 2025.1
 CP2K| source code revision number:                                             
 CP2K| cp2kflags: omp libint fftw3 libxc parallel scalapack no_statm_access     
 CP2K| is freely available from                            https://www.cp2k.org/
 CP2K| Program compiled at                                   2025-01-01 12:26:53
 CP2K| Program compiled on                                                      
 CP2K| Program compiled for                                                arm64
 CP2K| Data directory path      /opt/homebrew/Cellar/cp2k/2025.1/share/cp2k/data
 CP2K| Input file name                                       Lalanine_geoopt.inp

 GLOBAL| Force Environment number                                              1
 GLOBAL| Basis set file name                                           BASIS_SET
 GLOBAL| Potential file name                                      GTH_POTENTIALS
 GLOBAL| MM Potential file name                                     MM_POTENTIAL
 GLOBAL| Coordinate file name                                       Lalanine.cif
 GLOBAL| Method name                                                        CP2K
 GLOBAL| Project name                                                  L-alanine
 GLOBAL| Run type                                                        GEO_OPT
 GLOBAL| FFT library                                                       FFTW3
 GLOBAL| Diagonalization library                                       ScaLAPACK
 GLOBAL| DGEMM library                                                      BLAS
 GLOBAL| Orthonormality check for eigenvectors                          DISABLED
 GLOBAL| Matrix multiplication library                                 ScaLAPACK
 GLOBAL| All-to-all communication in single precision                          F
 GLOBAL| FFTs using library dependent lengths                                  F
 GLOBAL| Grid backend                                                       AUTO
 GLOBAL| Global print level                                               MEDIUM
 GLOBAL| MPI I/O enabled                                                       T
 GLOBAL| Total number of message passing processes                             1
 GLOBAL| Number of threads for this process                                    8
 GLOBAL| This output is from process                                           0
 GLOBAL| OpenMP stack size per thread (OMP_STACKSIZE)                    default
 GLOBAL| CPU model name                                                  UNKNOWN
 GLOBAL| CPUID                                                              2000

 MEMORY| system memory details [Kb]
 MEMORY|                        rank 0           min           max       average
 MEMORY| MemTotal                    0             0             0             0
 MEMORY| MemFree                     0             0             0             0
 MEMORY| Buffers                     0             0             0             0
 MEMORY| Cached                      0             0             0             0
 MEMORY| Slab                        0             0             0             0
 MEMORY| SReclaimable                0             0             0             0
 MEMORY| MemLikelyFree               0             0             0             0


 *** Fundamental physical constants (SI units) ***

 *** Literature: B. J. Mohr and B. N. Taylor,
 ***             CODATA recommended values of the fundamental physical
 ***             constants: 2006, Web Version 5.1
 ***             http://physics.nist.gov/constants

 Speed of light in vacuum [m/s]                             2.99792458000000E+08
 Magnetic constant or permeability of vacuum [N/A**2]       1.25663706143592E-06
 Electric constant or permittivity of vacuum [F/m]          8.85418781762039E-12
 Planck constant (h) [J*s]                                  6.62606896000000E-34
 Planck constant (h-bar) [J*s]                              1.05457162825177E-34
 Elementary charge [C]                                      1.60217648700000E-19
 Electron mass [kg]                                         9.10938215000000E-31
 Electron g factor [ ]                                     -2.00231930436220E+00
 Proton mass [kg]                                           1.67262163700000E-27
 Fine-structure constant                                    7.29735253760000E-03
 Rydberg constant [1/m]                                     1.09737315685270E+07
 Avogadro constant [1/mol]                                  6.02214179000000E+23
 Boltzmann constant [J/K]                                   1.38065040000000E-23
 Atomic mass unit [kg]                                      1.66053878200000E-27
 Bohr radius [m]                                            5.29177208590000E-11

 *** Conversion factors ***

 [u] -> [a.u.]                                              1.82288848426455E+03
 [Angstrom] -> [Bohr] = [a.u.]                              1.88972613288564E+00
 [a.u.] = [Bohr] -> [Angstrom]                              5.29177208590000E-01
 [a.u.] -> [s]                                              2.41888432650478E-17
 [a.u.] -> [fs]                                             2.41888432650478E-02
 [a.u.] -> [J]                                              4.35974393937059E-18
 [a.u.] -> [N]                                              8.23872205491840E-08
 [a.u.] -> [K]                                              3.15774647902944E+05
 [a.u.] -> [kJ/mol]                                         2.62549961709828E+03
 [a.u.] -> [kcal/mol]                                       6.27509468713739E+02
 [a.u.] -> [Pa]                                             2.94210107994716E+13
 [a.u.] -> [bar]                                            2.94210107994716E+08
 [a.u.] -> [atm]                                            2.90362800883016E+08
 [a.u.] -> [eV]                                             2.72113838565563E+01
 [a.u.] -> [Hz]                                             6.57968392072181E+15
 [a.u.] -> [1/cm] (wave numbers)                            2.19474631370540E+05
 [a.u./Bohr**2] -> [1/cm]                                   5.14048714338585E+03
 

 CELL_TOP| Volume [angstrom^3]:                                       423.301293
 CELL_TOP| Vector a [angstrom     5.940     0.000     0.000   |a| =     5.940000
 CELL_TOP| Vector b [angstrom     0.000    12.274     0.000   |b| =    12.274000
 CELL_TOP| Vector c [angstrom     0.000     0.000     5.806   |c| =     5.806000
 CELL_TOP| Angle (b,c), alpha [degree]:                                90.000000
 CELL_TOP| Angle (a,c), beta  [degree]:                                90.000000
 CELL_TOP| Angle (a,b), gamma [degree]:                                90.000000
 CELL_TOP| Numerically orthorhombic:                                         YES
 CELL_TOP| Periodicity                                                       XYZ

 CELL_CIF| Volume [angstrom^3]:                                       423.301293
 CELL_CIF| Vector a [angstrom     5.940     0.000     0.000   |a| =     5.940000
 CELL_CIF| Vector b [angstrom     0.000    12.274     0.000   |b| =    12.274000
 CELL_CIF| Vector c [angstrom     0.000     0.000     5.806   |c| =     5.806000
 CELL_CIF| Angle (b,c), alpha [degree]:                                90.000000
 CELL_CIF| Angle (a,c), beta  [degree]:                                90.000000
 CELL_CIF| Angle (a,b), gamma [degree]:                                90.000000
 CELL_CIF| Numerically orthorhombic:                                         YES
 CELL_CIF| Periodicity                                                       XYZ

 GENERATE|  Preliminary Number of Bonds generated:                             2
 GENERATE|  Achieved consistency in connectivity generation.
 GENERATE|  Number of Bonds generated:                                         2
 REORDER |  
 REORDER |  Reordering Molecules. The Reordering of molecules will override all
 REORDER |  information regarding molecule names and residue names.
 REORDER |  New ones will be provided on the basis of the connectivity!
 REORDER |  Number of unique molecules found:      5.
 REORDER |  

 GENERATE|  Preliminary Number of Bonds generated:                             2
 GENERATE|  Achieved consistency in connectivity generation.
 GENERATE|  Number of Bonds generated:                                         2
 GENERATE|  Preliminary Number of Bends generated:                             0
 GENERATE|  Preliminary Number of Torsions generated:                          0

 CELL| Volume [angstrom^3]:                                           423.301293
 CELL| Vector a [angstrom]:       5.940     0.000     0.000   |a| =     5.940000
 CELL| Vector b [angstrom]:       0.000    12.274     0.000   |b| =    12.274000
 CELL| Vector c [angstrom]:       0.000     0.000     5.806   |c| =     5.806000
 CELL| Angle (b,c), alpha [degree]:                                    90.000000
 CELL| Angle (a,c), beta  [degree]:                                    90.000000
 CELL| Angle (a,b), gamma [degree]:                                    90.000000
 CELL| Numerically orthorhombic:                                             YES
 CELL| Periodicity                                                           XYZ

 CELL_REF| Volume [angstrom^3]:                                       423.301293
 CELL_REF| Vector a [angstrom     5.940     0.000     0.000   |a| =     5.940000
 CELL_REF| Vector b [angstrom     0.000    12.274     0.000   |b| =    12.274000
 CELL_REF| Vector c [angstrom     0.000     0.000     5.806   |c| =     5.806000
 CELL_REF| Angle (b,c), alpha [degree]:                                90.000000
 CELL_REF| Angle (a,c), beta  [degree]:                                90.000000
 CELL_REF| Angle (a,b), gamma [degree]:                                90.000000
 CELL_REF| Numerically orthorhombic:                                         YES
 CELL_REF| Periodicity                                                       XYZ

 *******************************************************************************
 *******************************************************************************
 **                                                                           **
 **     #####                         ##              ##                      **
 **    ##   ##            ##          ##              ##                      **
 **   ##     ##                       ##            ######                    **
 **   ##     ##  ##   ##  ##   #####  ##  ##   ####   ##    #####    #####    **
 **   ##     ##  ##   ##  ##  ##      ## ##   ##      ##   ##   ##  ##   ##   **
 **   ##  ## ##  ##   ##  ##  ##      ####     ###    ##   ######   ######    **
 **    ##  ###   ##   ##  ##  ##      ## ##      ##   ##   ##       ##        **
 **     #######   #####   ##   #####  ##  ##  ####    ##    #####   ##        **
 **           ##                                                    ##        **
 **                                                                           **
 **                                                ... make the atoms dance   **
 **                                                                           **
 **            Copyright (C) by CP2K developers group (2000-2025)             **
 **                      J. Chem. Phys. 152, 194103 (2020)                    **
 **                                                                           **
 *******************************************************************************

 DFT| Spin restricted Kohn-Sham (RKS) calculation                            RKS
 DFT| Multiplicity                                                             1
 DFT| Number of spin states                                                    1
 DFT| Charge                                                                   0
 DFT| Self-interaction correction (SIC)                                       NO
 DFT| Cutoffs: density                                              1.000000E-10
 DFT|          gradient                                             1.000000E-10
 DFT|          tau                                                  1.000000E-10
 DFT|          cutoff_smoothing_range                               0.000000E+00
 DFT| XC density smoothing                                                  NONE
 DFT| XC derivatives                                                          PW

 FUNCTIONAL| PBE:
 FUNCTIONAL| J.P.Perdew, K.Burke, M.Ernzerhof, Phys. Rev. Letter, vol. 77, n 18,
 FUNCTIONAL|  pp. 3865-3868, (1996) {spin unpolarized}                          


 QS| Method:                                                                 GPW
 QS| Density plane wave grid type                        NON-SPHERICAL FULLSPACE
 QS| Number of grid levels:                                                    4
 QS| Density cutoff [a.u.]:                                                150.0
 QS| Multi grid cutoff [a.u.]: 1) grid level                               150.0
 QS|                           2) grid level                                50.0
 QS|                           3) grid level                                16.7
 QS|                           4) grid level                                 5.6
 QS| Grid level progression factor:                                          3.0
 QS| Relative density cutoff [a.u.]:                                        30.0
 QS| Interaction thresholds: eps_pgf_orb:                                1.0E-05
 QS|                         eps_filter_matrix:                          0.0E+00
 QS|                         eps_core_charge:                            1.0E-12
 QS|                         eps_rho_gspace:                             1.0E-10
 QS|                         eps_rho_rspace:                             1.0E-10
 QS|                         eps_gvg_rspace:                             1.0E-05
 QS|                         eps_ppl:                                    1.0E-02
 QS|                         eps_ppnl:                                   1.0E-07


 ATOMIC KIND INFORMATION

  1. Atomic kind: N                                     Number of atoms:       4

     Orbital Basis Set                                              DZVP-GTH-PBE

       Number of orbital shell sets:                                           2
       Number of orbital shells:                                               5
       Number of primitive Cartesian functions:                                5
       Number of Cartesian basis functions:                                   14
       Number of spherical basis functions:                                   13
       Norm type:                                                              2

       Normalised Cartesian orbitals:

                        Set   Shell   Orbital            Exponent    Coefficient

                          1       1    2s                6.164619       0.420336
                                                         1.803721      -0.037610
                                                         0.565851      -0.331484
                                                         0.160330      -0.066869

                          1       2    3s                6.164619       0.000000
                                                         1.803721       0.000000
                                                         0.565851       0.000000
                                                         0.160330       0.180580

                          1       3    3px               6.164619      -1.298978
                                                         1.803721      -0.867695
                                                         0.565851      -0.335435
                                                         0.160330      -0.055666
                          1       3    3py               6.164619      -1.298978
                                                         1.803721      -0.867695
                                                         0.565851      -0.335435
                                                         0.160330      -0.055666
                          1       3    3pz               6.164619      -1.298978
                                                         1.803721      -0.867695
                                                         0.565851      -0.335435
                                                         0.160330      -0.055666

                          1       4    4px               6.164619       0.000000
                                                         1.803721       0.000000
                                                         0.565851       0.000000
                                                         0.160330       0.144613
                          1       4    4py               6.164619       0.000000
                                                         1.803721       0.000000
                                                         0.565851       0.000000
                                                         0.160330       0.144613
                          1       4    4pz               6.164619       0.000000
                                                         1.803721       0.000000
                                                         0.565851       0.000000
                                                         0.160330       0.144613

                          2       1    3dx2              0.700000       0.881721
                          2       1    3dxy              0.700000       1.527185
                          2       1    3dxz              0.700000       1.527185
                          2       1    3dy2              0.700000       0.881721
                          2       1    3dyz              0.700000       1.527185
                          2       1    3dz2              0.700000       0.881721

       Atomic covalent radius [Angstrom]:                                  0.750

       Atomic van der Waals radius [Angstrom]:                             1.550

     GTH Potential information for                                    GTH-PBE-q5

       Description:                       Goedecker-Teter-Hutter pseudopotential
                                           Goedecker et al., PRB 54, 1703 (1996)
                                          Hartwigsen et al., PRB 58, 3641 (1998)
                                                      Krack, TCA 114, 145 (2005)

       Gaussian exponent of the core charge distribution:               6.208322
       Electronic configuration (s p d ...):                               2   3

       Parameters of the local part of the GTH pseudopotential:

                          rloc        C1          C2          C3          C4
                        0.283791  -12.415226    1.868096

       Parameters of the non-local part of the GTH pseudopotential:

                   l      r(l)      h(i,j,l)

                   0    0.255405   13.630263
                   1    0.245495

  2. Atomic kind: H                                     Number of atoms:      28

     Orbital Basis Set                                              DZVP-GTH-PBE

       Number of orbital shell sets:                                           2
       Number of orbital shells:                                               3
       Number of primitive Cartesian functions:                                5
       Number of Cartesian basis functions:                                    5
       Number of spherical basis functions:                                    5
       Norm type:                                                              2

       Normalised Cartesian orbitals:

                        Set   Shell   Orbital            Exponent    Coefficient

                          1       1    1s                8.448693      -0.102587
                                                         1.858165      -0.150628
                                                         0.507611      -0.174074
                                                         0.167390      -0.102410

                          1       2    2s                8.448693       0.000000
                                                         1.858165       0.000000
                                                         0.507611       0.000000
                                                         0.167390       0.186513

                          2       1    2px               0.700000       0.912668
                          2       1    2py               0.700000       0.912668
                          2       1    2pz               0.700000       0.912668

       Atomic covalent radius [Angstrom]:                                  0.320

       Atomic van der Waals radius [Angstrom]:                             1.090

     GTH Potential information for                                    GTH-PBE-q1

       Description:                       Goedecker-Teter-Hutter pseudopotential
                                           Goedecker et al., PRB 54, 1703 (1996)
                                          Hartwigsen et al., PRB 58, 3641 (1998)
                                                      Krack, TCA 114, 145 (2005)

       Gaussian exponent of the core charge distribution:              12.500000
       Electronic configuration (s p d ...):                                   1

       Parameters of the local part of the GTH pseudopotential:

                          rloc        C1          C2          C3          C4
                        0.200000   -4.178900    0.724463

  3. Atomic kind: O                                     Number of atoms:       8

     Orbital Basis Set                                              DZVP-GTH-PBE

       Number of orbital shell sets:                                           2
       Number of orbital shells:                                               5
       Number of primitive Cartesian functions:                                5
       Number of Cartesian basis functions:                                   14
       Number of spherical basis functions:                                   13
       Norm type:                                                              2

       Normalised Cartesian orbitals:

                        Set   Shell   Orbital            Exponent    Coefficient

                          1       1    2s                8.296892       0.530066
                                                         2.431407      -0.056575
                                                         0.754761      -0.411691
                                                         0.210234      -0.081134

                          1       2    3s                8.296892       0.000000
                                                         2.431407       0.000000
                                                         0.754761       0.000000
                                                         0.210234       0.221278

                          1       3    3px               8.296892      -1.978529
                                                         2.431407      -1.306377
                                                         0.754761      -0.481422
                                                         0.210234      -0.076002
                          1       3    3py               8.296892      -1.978529
                                                         2.431407      -1.306377
                                                         0.754761      -0.481422
                                                         0.210234      -0.076002
                          1       3    3pz               8.296892      -1.978529
                                                         2.431407      -1.306377
                                                         0.754761      -0.481422
                                                         0.210234      -0.076002

                          1       4    4px               8.296892       0.000000
                                                         2.431407       0.000000
                                                         0.754761       0.000000
                                                         0.210234       0.202917
                          1       4    4py               8.296892       0.000000
                                                         2.431407       0.000000
                                                         0.754761       0.000000
                                                         0.210234       0.202917
                          1       4    4pz               8.296892       0.000000
                                                         2.431407       0.000000
                                                         0.754761       0.000000
                                                         0.210234       0.202917

                          2       1    3dx2              0.800000       1.113825
                          2       1    3dxy              0.800000       1.929201
                          2       1    3dxz              0.800000       1.929201
                          2       1    3dy2              0.800000       1.113825
                          2       1    3dyz              0.800000       1.929201
                          2       1    3dz2              0.800000       1.113825

       Atomic covalent radius [Angstrom]:                                  0.730

       Atomic van der Waals radius [Angstrom]:                             1.520

     GTH Potential information for                                    GTH-PBE-q6

       Description:                       Goedecker-Teter-Hutter pseudopotential
                                           Goedecker et al., PRB 54, 1703 (1996)
                                          Hartwigsen et al., PRB 58, 3641 (1998)
                                                      Krack, TCA 114, 145 (2005)

       Gaussian exponent of the core charge distribution:               8.360253
       Electronic configuration (s p d ...):                               2   4

       Parameters of the local part of the GTH pseudopotential:

                          rloc        C1          C2          C3          C4
                        0.244554  -16.667215    2.487311

       Parameters of the non-local part of the GTH pseudopotential:

                   l      r(l)      h(i,j,l)

                   0    0.220956   18.337458
                   1    0.211332

  4. Atomic kind: C                                     Number of atoms:      12

     Orbital Basis Set                                              DZVP-GTH-PBE

       Number of orbital shell sets:                                           2
       Number of orbital shells:                                               5
       Number of primitive Cartesian functions:                                5
       Number of Cartesian basis functions:                                   14
       Number of spherical basis functions:                                   13
       Norm type:                                                              2

       Normalised Cartesian orbitals:

                        Set   Shell   Orbital            Exponent    Coefficient

                          1       1    2s                4.365761       0.317724
                                                         1.274963      -0.017959
                                                         0.405288      -0.256998
                                                         0.117272      -0.054292

                          1       2    3s                4.365761       0.000000
                                                         1.274963       0.000000
                                                         0.405288       0.000000
                                                         0.117272       0.142825

                          1       3    3px               4.365761      -0.777347
                                                         1.274963      -0.529750
                                                         0.405288      -0.219987
                                                         0.117272      -0.039472
                          1       3    3py               4.365761      -0.777347
                                                         1.274963      -0.529750
                                                         0.405288      -0.219987
                                                         0.117272      -0.039472
                          1       3    3pz               4.365761      -0.777347
                                                         1.274963      -0.529750
                                                         0.405288      -0.219987
                                                         0.117272      -0.039472

                          1       4    4px               4.365761       0.000000
                                                         1.274963       0.000000
                                                         0.405288       0.000000
                                                         0.117272       0.097821
                          1       4    4py               4.365761       0.000000
                                                         1.274963       0.000000
                                                         0.405288       0.000000
                                                         0.117272       0.097821
                          1       4    4pz               4.365761       0.000000
                                                         1.274963       0.000000
                                                         0.405288       0.000000
                                                         0.117272       0.097821

                          2       1    3dx2              0.600000       0.673247
                          2       1    3dxy              0.600000       1.166097
                          2       1    3dxz              0.600000       1.166097
                          2       1    3dy2              0.600000       0.673247
                          2       1    3dyz              0.600000       1.166097
                          2       1    3dz2              0.600000       0.673247

       Atomic covalent radius [Angstrom]:                                  0.770

       Atomic van der Waals radius [Angstrom]:                             1.700

     GTH Potential information for                                    GTH-PBE-q4

       Description:                       Goedecker-Teter-Hutter pseudopotential
                                           Goedecker et al., PRB 54, 1703 (1996)
                                          Hartwigsen et al., PRB 58, 3641 (1998)
                                                      Krack, TCA 114, 145 (2005)

       Gaussian exponent of the core charge distribution:               4.364419
       Electronic configuration (s p d ...):                               2   2

       Parameters of the local part of the GTH pseudopotential:

                          rloc        C1          C2          C3          C4
                        0.338471   -8.803674    1.339211

       Parameters of the non-local part of the GTH pseudopotential:

                   l      r(l)      h(i,j,l)

                   0    0.302576    9.622487
                   1    0.291507


 MOLECULE KIND INFORMATION

     1. Molecule kind: MOL5        Atomic kind name:   N
        Automatic name: T                             Number of molecules:     4

     2. Molecule kind: MOL13                     Number of atoms:              2
                     Atom         Atomic kind name
                        1                        H
                        2                        H

        The name was automatically generated: T
        Number of molecules:      2
        Molecule list:                5         6
        Number of bonds:            1

     3. Molecule kind: MOL4        Atomic kind name:   O
        Automatic name: T                             Number of molecules:     1

     4. Molecule kind: MOL12       Atomic kind name:   O
        Automatic name: T                             Number of molecules:     1

     5. Molecule kind: MOL4        Atomic kind name:   O
        Automatic name: T                             Number of molecules:     1

     6. Molecule kind: MOL12       Atomic kind name:   O
        Automatic name: T                             Number of molecules:     1

     7. Molecule kind: MOL4        Atomic kind name:   O
        Automatic name: T                             Number of molecules:     1

     8. Molecule kind: MOL12       Atomic kind name:   O
        Automatic name: T                             Number of molecules:     1

     9. Molecule kind: MOL4        Atomic kind name:   O
        Automatic name: T                             Number of molecules:     1

    10. Molecule kind: MOL12       Atomic kind name:   O
        Automatic name: T                             Number of molecules:     1

    11. Molecule kind: MOL6        Atomic kind name:   C
        Automatic name: T                             Number of molecules:     1

    12. Molecule kind: MOL7        Atomic kind name:   C
        Automatic name: T                             Number of molecules:     1

    13. Molecule kind: MOL10       Atomic kind name:   C
        Automatic name: T                             Number of molecules:     1

    14. Molecule kind: MOL6        Atomic kind name:   C
        Automatic name: T                             Number of molecules:     1

    15. Molecule kind: MOL7        Atomic kind name:   C
        Automatic name: T                             Number of molecules:     1

    16. Molecule kind: MOL10       Atomic kind name:   C
        Automatic name: T                             Number of molecules:     1

    17. Molecule kind: MOL6        Atomic kind name:   C
        Automatic name: T                             Number of molecules:     1

    18. Molecule kind: MOL7        Atomic kind name:   C
        Automatic name: T                             Number of molecules:     1

    19. Molecule kind: MOL10       Atomic kind name:   C
        Automatic name: T                             Number of molecules:     1

    20. Molecule kind: MOL6        Atomic kind name:   C
        Automatic name: T                             Number of molecules:     1

    21. Molecule kind: MOL7        Atomic kind name:   C
        Automatic name: T                             Number of molecules:     1

    22. Molecule kind: MOL10       Atomic kind name:   C
        Automatic name: T                             Number of molecules:     1

    23. Molecule kind: MOL1        Atomic kind name:   H
        Automatic name: T                             Number of molecules:     1

    24. Molecule kind: MOL2        Atomic kind name:   H
        Automatic name: T                             Number of molecules:     1

    25. Molecule kind: MOL3        Atomic kind name:   H
        Automatic name: T                             Number of molecules:     1

    26. Molecule kind: MOL8        Atomic kind name:   H
        Automatic name: T                             Number of molecules:     1

    27. Molecule kind: MOL9        Atomic kind name:   H
        Automatic name: T                             Number of molecules:     1

    28. Molecule kind: MOL11       Atomic kind name:   H
        Automatic name: T                             Number of molecules:     1

    29. Molecule kind: MOL1        Atomic kind name:   H
        Automatic name: T                             Number of molecules:     1

    30. Molecule kind: MOL2        Atomic kind name:   H
        Automatic name: T                             Number of molecules:     1

    31. Molecule kind: MOL3        Atomic kind name:   H
        Automatic name: T                             Number of molecules:     1

    32. Molecule kind: MOL8        Atomic kind name:   H
        Automatic name: T                             Number of molecules:     1

    33. Molecule kind: MOL9        Atomic kind name:   H
        Automatic name: T                             Number of molecules:     1

    34. Molecule kind: MOL11       Atomic kind name:   H
        Automatic name: T                             Number of molecules:     1

    35. Molecule kind: MOL1        Atomic kind name:   H
        Automatic name: T                             Number of molecules:     1

    36. Molecule kind: MOL2        Atomic kind name:   H
        Automatic name: T                             Number of molecules:     1

    37. Molecule kind: MOL3        Atomic kind name:   H
        Automatic name: T                             Number of molecules:     1

    38. Molecule kind: MOL8        Atomic kind name:   H
        Automatic name: T                             Number of molecules:     1

    39. Molecule kind: MOL9        Atomic kind name:   H
        Automatic name: T                             Number of molecules:     1

    40. Molecule kind: MOL11       Atomic kind name:   H
        Automatic name: T                             Number of molecules:     1

    41. Molecule kind: MOL1        Atomic kind name:   H
        Automatic name: T                             Number of molecules:     1

    42. Molecule kind: MOL2        Atomic kind name:   H
        Automatic name: T                             Number of molecules:     1

    43. Molecule kind: MOL3        Atomic kind name:   H
        Automatic name: T                             Number of molecules:     1

    44. Molecule kind: MOL8        Atomic kind name:   H
        Automatic name: T                             Number of molecules:     1

    45. Molecule kind: MOL9        Atomic kind name:   H
        Automatic name: T                             Number of molecules:     1

    46. Molecule kind: MOL11       Atomic kind name:   H
        Automatic name: T                             Number of molecules:     1


 MOLECULE KIND SET INFORMATION               Total Number of bonds:            2
                                             Total Number of bends:            0
                                             Total Number of Urey-Bradley:     0
                                             Total Number of torsions:         0
                                             Total Number of improper:         0
                                              Total Number of opbends:         0


 TOTAL NUMBERS AND MAXIMUM NUMBERS

  Total number of            - Atomic kinds:                                   4
                             - Atoms:                                         52
                             - Shell sets:                                   104
                             - Shells:                                       204
                             - Primitive Cartesian functions:                260
                             - Cartesian basis functions:                    476
                             - Spherical basis functions:                    452

  Maximum angular momentum of- Orbital basis functions:                        2
                             - Local part of the GTH pseudopotential:          2
                             - Non-local part of the GTH pseudopotential:      0


 MODULE QUICKSTEP: ATOMIC COORDINATES IN ANGSTROM

   Atom Kind Element         X             Y             Z       Z(eff)     Mass
      1    1 N     7     -2.095394      1.688657     -4.742805   5.0000  14.0067
      2    1 N     7      0.874606      4.448343      4.742805   5.0000  14.0067
      3    1 N     7      2.095394      7.825657      7.645805   5.0000  14.0067
      4    1 N     7      5.065394     -1.688657     -1.839805   5.0000  14.0067
      5    2 H     1     -4.132458      0.047869     -4.034589   1.0000   1.0079
      6    2 H     1      7.102458     -0.047869     -1.131589   1.0000   1.0079
      7    2 H     1     -1.162458      6.089131      4.034589   1.0000   1.0079
      8    2 H     1      4.132458      6.184869      6.937589   1.0000   1.0079
      9    3 O     8     -3.321351      2.259152     -1.387053   6.0000  15.9994
     10    3 O     8     -1.624115      1.027088     -2.178411   6.0000  15.9994
     11    3 O     8     -0.351351      3.877848      1.387053   6.0000  15.9994
     12    3 O     8      1.345885      5.109912      2.178411   6.0000  15.9994
     13    3 O     8      3.321351      8.396152      4.290053   6.0000  15.9994
     14    3 O     8      1.624115      7.164088      5.081411   6.0000  15.9994
     15    3 O     8      6.291351     -2.259152      1.515947   6.0000  15.9994
     16    3 O     8      4.594115     -1.027088      0.724589   6.0000  15.9994
     17    4 C     6     -3.168158      1.976482     -3.749225   4.0000  12.0107
     18    4 C     6     -2.647696      1.727320     -2.323793   4.0000  12.0107
     19    4 C     6     -4.394115      1.112884     -4.045389   4.0000  12.0107
     20    4 C     6     -0.198158      4.160518      3.749224   4.0000  12.0107
     21    4 C     6      0.322304      4.409680      2.323793   4.0000  12.0107
     22    4 C     6     -1.424115      5.024116      4.045389   4.0000  12.0107
     23    4 C     6      3.168158      8.113482      6.652225   4.0000  12.0107
     24    4 C     6      2.647696      7.864320      5.226793   4.0000  12.0107
     25    4 C     6      4.394115      7.249884      6.948389   4.0000  12.0107
     26    4 C     6      6.138158     -1.976482     -0.846224   4.0000  12.0107
     27    4 C     6      5.617696     -1.727320      0.579207   4.0000  12.0107
     28    4 C     6      7.364115     -1.112884     -1.142389   4.0000  12.0107
     29    2 H     1     -3.415500      3.041497     -3.843572   1.0000   1.0079
     30    2 H     1     -1.310958      2.355381     -4.591385   1.0000   1.0079
     31    2 H     1     -2.474010      1.827599     -5.722394   1.0000   1.0079
     32    2 H     1     -4.795362      1.357504     -5.044253   1.0000   1.0079
     33    2 H     1     -5.173740      1.280178     -3.294905   1.0000   1.0079
     34    2 H     1     -1.748736      0.706982     -4.663379   1.0000   1.0079
     35    2 H     1     -0.445500      3.095503      3.843572   1.0000   1.0079
     36    2 H     1      1.659042      3.781619      4.591385   1.0000   1.0079
     37    2 H     1      0.495990      4.309401      5.722394   1.0000   1.0079
     38    2 H     1     -1.825362      4.779496      5.044253   1.0000   1.0079
     39    2 H     1     -2.203740      4.856822      3.294905   1.0000   1.0079
     40    2 H     1      1.221264      5.430018      4.663379   1.0000   1.0079
     41    2 H     1      3.415500      9.178497      6.746572   1.0000   1.0079
     42    2 H     1      1.310958      8.492381      7.494385   1.0000   1.0079
     43    2 H     1      2.474010      7.964599      8.625394   1.0000   1.0079
     44    2 H     1      4.795362      7.494504      7.947253   1.0000   1.0079
     45    2 H     1      5.173740      7.417178      6.197905   1.0000   1.0079
     46    2 H     1      1.748736      6.843982      7.566379   1.0000   1.0079
     47    2 H     1      6.385500     -3.041497     -0.940572   1.0000   1.0079
     48    2 H     1      4.280958     -2.355381     -1.688385   1.0000   1.0079
     49    2 H     1      5.444010     -1.827599     -2.819394   1.0000   1.0079
     50    2 H     1      7.765362     -1.357504     -2.141253   1.0000   1.0079
     51    2 H     1      8.143740     -1.280178     -0.391905   1.0000   1.0079
     52    2 H     1      4.718736     -0.706982     -1.760379   1.0000   1.0079



 SCF PARAMETERS         Density guess:                                   RESTART
                        --------------------------------------------------------
                        max_scf:                                             300
                        max_scf_history:                                       0
                        max_diis:                                              4
                        --------------------------------------------------------
                        eps_scf:                                        1.00E-07
                        eps_scf_history:                                0.00E+00
                        eps_diis:                                       1.00E-01
                        eps_eigval:                                     1.00E-05
                        --------------------------------------------------------
                        level_shift [a.u.]:                             0.000000
                        --------------------------------------------------------
                        Mixing method:                            BROYDEN_MIXING
                                                charge density mixing in g-space
                        --------------------------------------------------------
                        No outer SCF

 PW_GRID| Information for grid number                                          1
 PW_GRID| Cutoff [a.u.]                                                    150.0
 PW_GRID| spherical cutoff:                                                   NO
 PW_GRID|   Bounds   1            -32      31                Points:          64
 PW_GRID|   Bounds   2            -64      63                Points:         128
 PW_GRID|   Bounds   3            -32      31                Points:          64
 PW_GRID| Volume element (a.u.^3)  0.5448E-02     Volume (a.u.^3)      2856.5788
 PW_GRID| Grid span                                                    FULLSPACE

 PW_GRID| Information for grid number                                          2
 PW_GRID| Number of the reference grid                                         1
 PW_GRID| Cutoff [a.u.]                                                     50.0
 PW_GRID| spherical cutoff:                                                   NO
 PW_GRID|   Bounds   1            -18      17                Points:          36
 PW_GRID|   Bounds   2            -37      37                Points:          75
 PW_GRID|   Bounds   3            -18      17                Points:          36
 PW_GRID| Volume element (a.u.^3)  0.2939E-01     Volume (a.u.^3)      2856.5788
 PW_GRID| Grid span                                                    FULLSPACE

 PW_GRID| Information for grid number                                          3
 PW_GRID| Number of the reference grid                                         1
 PW_GRID| Cutoff [a.u.]                                                     16.7
 PW_GRID| spherical cutoff:                                                   NO
 PW_GRID|   Bounds   1            -12      11                Points:          24
 PW_GRID|   Bounds   2            -22      22                Points:          45
 PW_GRID|   Bounds   3            -12      11                Points:          24
 PW_GRID| Volume element (a.u.^3)  0.1102         Volume (a.u.^3)      2856.5788
 PW_GRID| Grid span                                                    FULLSPACE

 PW_GRID| Information for grid number                                          4
 PW_GRID| Number of the reference grid                                         1
 PW_GRID| Cutoff [a.u.]                                                      5.6
 PW_GRID| spherical cutoff:                                                   NO
 PW_GRID|   Bounds   1             -6       5                Points:          12
 PW_GRID|   Bounds   2            -12      12                Points:          25
 PW_GRID|   Bounds   3             -6       5                Points:          12
 PW_GRID| Volume element (a.u.^3)  0.7935         Volume (a.u.^3)      2856.5788
 PW_GRID| Grid span                                                    FULLSPACE

 POISSON| Solver                                                        PERIODIC
 POISSON| Periodicity                                                        XYZ

 RS_GRID| Information for grid number                                          1
 RS_GRID|   Bounds   1            -32      31                Points:          64
 RS_GRID|   Bounds   2            -64      63                Points:         128
 RS_GRID|   Bounds   3            -32      31                Points:          64

 RS_GRID| Information for grid number                                          2
 RS_GRID|   Bounds   1            -18      17                Points:          36
 RS_GRID|   Bounds   2            -37      37                Points:          75
 RS_GRID|   Bounds   3            -18      17                Points:          36

 RS_GRID| Information for grid number                                          3
 RS_GRID|   Bounds   1            -12      11                Points:          24
 RS_GRID|   Bounds   2            -22      22                Points:          45
 RS_GRID|   Bounds   3            -12      11                Points:          24

 RS_GRID| Information for grid number                                          4
 RS_GRID|   Bounds   1             -6       5                Points:          12
 RS_GRID|   Bounds   2            -12      12                Points:          25
 RS_GRID|   Bounds   3             -6       5                Points:          12

 BFGS| Use rational function optimization for step estimation:                NO
 BFGS| Use model Hessian for initial guess:                                  YES
 BFGS| Restart Hessian:                                                       NO
 BFGS| Trust radius:                                                       0.472

 *******************************************************************************
 ***                     STARTING GEOMETRY OPTIMIZATION                      ***
 ***                                   BFGS                                  ***
 *******************************************************************************

 Number of electrons:                                                        144
 Number of occupied orbitals:                                                 72
 Number of molecular orbitals:                                                72

 Number of orbital functions:                                                452
 Number of independent orbital functions:                                    452

 Extrapolation method: initial_guess


 SCF WAVEFUNCTION OPTIMIZATION

  Step     Update method      Time    Convergence         Total energy    Change
  ------------------------------------------------------------------------------
     1 NoMix/Diag. 0.40E+00    0.3     0.00000004      -253.0010706988 -2.53E+02

  *** SCF run converged in     1 steps ***


  Electronic density on regular grids:       -144.0000000521       -0.0000000521
  Core density on regular grids:              143.9999999918       -0.0000000082
  Total charge density on r-space grids:       -0.0000000603
  Total charge density g-space grids:          -0.0000000603

  Overlap energy of the core charge distribution:               0.00000546263445
  Self energy of the core charge distribution:               -631.12549796049814
  Core Hamiltonian energy:                                    189.02912520403456
  Hartree energy:                                             258.63922845180196
  Exchange-correlation energy:                                -69.54393185674152

  Total energy:                                              -253.00107069876864

 !-----------------------------------------------------------------------------!
                     Mulliken Population Analysis

 #  Atom  Element  Kind  Atomic population                           Net charge
       1     N        1          5.135843                             -0.135843
       2     N        1          5.135843                             -0.135843
       3     N        1          5.135843                             -0.135843
       4     N        1          5.135843                             -0.135843
       5     H        2          0.875387                              0.124613
       6     H        2          0.875387                              0.124613
       7     H        2          0.875387                              0.124613
       8     H        2          0.875387                              0.124613
       9     O        3          6.400568                             -0.400568
      10     O        3          6.367571                             -0.367571
      11     O        3          6.400568                             -0.400568
      12     O        3          6.367571                             -0.367571
      13     O        3          6.400568                             -0.400568
      14     O        3          6.367571                             -0.367571
      15     O        3          6.400568                             -0.400568
      16     O        3          6.367571                             -0.367571
      17     C        4          4.125897                             -0.125897
      18     C        4          4.035673                             -0.035673
      19     C        4          4.254171                             -0.254171
      20     C        4          4.125897                             -0.125897
      21     C        4          4.035673                             -0.035673
      22     C        4          4.254171                             -0.254171
      23     C        4          4.125897                             -0.125897
      24     C        4          4.035673                             -0.035673
      25     C        4          4.254171                             -0.254171
      26     C        4          4.125897                             -0.125897
      27     C        4          4.035673                             -0.035673
      28     C        4          4.254171                             -0.254171
      29     H        2          0.831411                              0.168589
      30     H        2          0.739208                              0.260792
      31     H        2          0.764644                              0.235356
      32     H        2          0.900351                              0.099649
      33     H        2          0.854103                              0.145897
      34     H        2          0.715175                              0.284825
      35     H        2          0.831411                              0.168589
      36     H        2          0.739208                              0.260792
      37     H        2          0.764644                              0.235356
      38     H        2          0.900351                              0.099649
      39     H        2          0.854103                              0.145897
      40     H        2          0.715175                              0.284825
      41     H        2          0.831411                              0.168589
      42     H        2          0.739208                              0.260792
      43     H        2          0.764644                              0.235356
      44     H        2          0.900351                              0.099649
      45     H        2          0.854103                              0.145897
      46     H        2          0.715175                              0.284825
      47     H        2          0.831411                              0.168589
      48     H        2          0.739208                              0.260792
      49     H        2          0.764644                              0.235356
      50     H        2          0.900351                              0.099649
      51     H        2          0.854103                              0.145897
      52     H        2          0.715175                              0.284825
 # Total charge                            144.000000                 -0.000000

 !-----------------------------------------------------------------------------!

 !-----------------------------------------------------------------------------!
                           Hirshfeld Charges

  #Atom  Element  Kind  Ref Charge     Population                    Net charge
      1       N      1       5.000          5.922                        -0.922
      2       N      1       5.000          5.922                        -0.922
      3       N      1       5.000          5.922                        -0.922
      4       N      1       5.000          5.922                        -0.922
      5       H      2       1.000          0.554                         0.446
      6       H      2       1.000          0.554                         0.446
      7       H      2       1.000          0.554                         0.446
      8       H      2       1.000          0.554                         0.446
      9       O      3       6.000          6.784                        -0.784
     10       O      3       6.000          6.737                        -0.737
     11       O      3       6.000          6.784                        -0.784
     12       O      3       6.000          6.737                        -0.737
     13       O      3       6.000          6.784                        -0.784
     14       O      3       6.000          6.737                        -0.737
     15       O      3       6.000          6.784                        -0.784
     16       O      3       6.000          6.737                        -0.737
     17       C      4       4.000          4.235                        -0.235
     18       C      4       4.000          3.560                         0.440
     19       C      4       4.000          5.197                        -1.197
     20       C      4       4.000          4.235                        -0.235
     21       C      4       4.000          3.560                         0.440
     22       C      4       4.000          5.197                        -1.197
     23       C      4       4.000          4.235                        -0.235
     24       C      4       4.000          3.560                         0.440
     25       C      4       4.000          5.197                        -1.197
     26       C      4       4.000          4.235                        -0.235
     27       C      4       4.000          3.560                         0.440
     28       C      4       4.000          5.197                        -1.197
     29       H      2       1.000          0.552                         0.448
     30       H      2       1.000          0.454                         0.546
     31       H      2       1.000          0.453                         0.547
     32       H      2       1.000          0.554                         0.446
     33       H      2       1.000          0.549                         0.451
     34       H      2       1.000          0.450                         0.550
     35       H      2       1.000          0.552                         0.448
     36       H      2       1.000          0.454                         0.546
     37       H      2       1.000          0.453                         0.547
     38       H      2       1.000          0.554                         0.446
     39       H      2       1.000          0.549                         0.451
     40       H      2       1.000          0.450                         0.550
     41       H      2       1.000          0.552                         0.448
     42       H      2       1.000          0.454                         0.546
     43       H      2       1.000          0.453                         0.547
     44       H      2       1.000          0.554                         0.446
     45       H      2       1.000          0.549                         0.451
     46       H      2       1.000          0.450                         0.550
     47       H      2       1.000          0.552                         0.448
     48       H      2       1.000          0.454                         0.546
     49       H      2       1.000          0.453                         0.547
     50       H      2       1.000          0.554                         0.446
     51       H      2       1.000          0.549                         0.451
     52       H      2       1.000          0.450                         0.550

  Total Charge                                                           -0.000
 !-----------------------------------------------------------------------------!

 ENERGY| Total FORCE_EVAL ( QS ) energy [hartree]           -253.001070698769013

 OPT| **************************************************************************
 OPT| Step number                                                              0
 OPT| Optimization method                                                   BFGS
 OPT| Total energy [hartree]                                     -253.0010706988
 OPT| Used time [s]                                                        1.186
 OPT| **************************************************************************

 --------------------------
 OPTIMIZATION STEP:      1
 --------------------------

 Number of electrons:                                                        144
 Number of occupied orbitals:                                                 72
 Number of molecular orbitals:                                                72

 Number of orbital functions:                                                452
 Number of independent orbital functions:                                    452

 Parameters for the always stable predictor-corrector (ASPC) method:

  ASPC order: 0

  B(1) =   1.000000

 Extrapolation method: ASPC


 SCF WAVEFUNCTION OPTIMIZATION

  Step     Update method      Time    Convergence         Total energy    Change
  ------------------------------------------------------------------------------
     1 NoMix/Diag. 0.40E+00    0.3     0.02599206      -253.0082168730 -2.53E+02
     2 Broy./Diag. 0.40E+00    0.5     0.00438909      -253.2092615678 -2.01E-01
     3 Broy./Diag. 0.40E+00    0.5     0.00179866      -253.0897062527  1.20E-01
     4 Broy./Diag. 0.40E+00    0.5     0.00063949      -253.0217249626  6.80E-02
     5 Broy./Diag. 0.40E+00    0.5     0.00026162      -253.0090232072  1.27E-02
     6 Broy./Diag. 0.40E+00    0.5     0.00006491      -253.0101140192 -1.09E-03
     7 Broy./Diag. 0.40E+00    0.5     0.00001750      -253.0107140507 -6.00E-04
     8 Broy./Diag. 0.40E+00    0.5     0.00000441      -253.0109973865 -2.83E-04
     9 Broy./Diag. 0.40E+00    0.5     0.00000171      -253.0108989140  9.85E-05
    10 Broy./Diag. 0.40E+00    0.5     0.00000109      -253.0109141137 -1.52E-05
    11 Broy./Diag. 0.40E+00    0.5     0.00000016      -253.0109225694 -8.46E-06
    12 Broy./Diag. 0.40E+00    0.5     0.00000005      -253.0109210616  1.51E-06

  *** SCF run converged in    12 steps ***


  Electronic density on regular grids:       -144.0000000655       -0.0000000655
  Core density on regular grids:              143.9999999919       -0.0000000081
  Total charge density on r-space grids:       -0.0000000737
  Total charge density g-space grids:          -0.0000000737

  Overlap energy of the core charge distribution:               0.00000429063249
  Self energy of the core charge distribution:               -631.12549796049814
  Core Hamiltonian energy:                                    188.54134694819132
  Hartree energy:                                             258.98256835547517
  Exchange-correlation energy:                                -69.40934269538194

  Total energy:                                              -253.01092106158120

 !-----------------------------------------------------------------------------!
                     Mulliken Population Analysis

 #  Atom  Element  Kind  Atomic population                           Net charge
       1     N        1          5.154867                             -0.154867
       2     N        1          5.154867                             -0.154867
       3     N        1          5.154867                             -0.154867
       4     N        1          5.154867                             -0.154867
       5     H        2          0.875188                              0.124812
       6     H        2          0.875188                              0.124812
       7     H        2          0.875188                              0.124812
       8     H        2          0.875188                              0.124812
       9     O        3          6.410242                             -0.410242
      10     O        3          6.380853                             -0.380853
      11     O        3          6.410242                             -0.410242
      12     O        3          6.380853                             -0.380853
      13     O        3          6.410242                             -0.410242
      14     O        3          6.380853                             -0.380853
      15     O        3          6.410242                             -0.410242
      16     O        3          6.380853                             -0.380853
      17     C        4          4.118440                             -0.118440
      18     C        4          4.012065                             -0.012065
      19     C        4          4.256623                             -0.256623
      20     C        4          4.118440                             -0.118440
      21     C        4          4.012065                             -0.012065
      22     C        4          4.256623                             -0.256623
      23     C        4          4.118440                             -0.118440
      24     C        4          4.012065                             -0.012065
      25     C        4          4.256623                             -0.256623
      26     C        4          4.118440                             -0.118440
      27     C        4          4.012065                             -0.012065
      28     C        4          4.256623                             -0.256623
      29     H        2          0.829659                              0.170341
      30     H        2          0.737867                              0.262133
      31     H        2          0.756626                              0.243374
      32     H        2          0.900952                              0.099048
      33     H        2          0.853011                              0.146989
      34     H        2          0.713608                              0.286392
      35     H        2          0.829659                              0.170341
      36     H        2          0.737867                              0.262133
      37     H        2          0.756626                              0.243374
      38     H        2          0.900952                              0.099048
      39     H        2          0.853011                              0.146989
      40     H        2          0.713608                              0.286392
      41     H        2          0.829659                              0.170341
      42     H        2          0.737867                              0.262133
      43     H        2          0.756626                              0.243374
      44     H        2          0.900952                              0.099048
      45     H        2          0.853011                              0.146989
      46     H        2          0.713608                              0.286392
      47     H        2          0.829659                              0.170341
      48     H        2          0.737867                              0.262133
      49     H        2          0.756626                              0.243374
      50     H        2          0.900952                              0.099048
      51     H        2          0.853011                              0.146989
      52     H        2          0.713608                              0.286392
 # Total charge                            144.000000                 -0.000000

 !-----------------------------------------------------------------------------!

 !-----------------------------------------------------------------------------!
                           Hirshfeld Charges

  #Atom  Element  Kind  Ref Charge     Population                    Net charge
      1       N      1       5.000          5.926                        -0.926
      2       N      1       5.000          5.926                        -0.926
      3       N      1       5.000          5.926                        -0.926
      4       N      1       5.000          5.926                        -0.926
      5       H      2       1.000          0.554                         0.446
      6       H      2       1.000          0.554                         0.446
      7       H      2       1.000          0.554                         0.446
      8       H      2       1.000          0.554                         0.446
      9       O      3       6.000          6.787                        -0.787
     10       O      3       6.000          6.741                        -0.741
     11       O      3       6.000          6.787                        -0.787
     12       O      3       6.000          6.741                        -0.741
     13       O      3       6.000          6.787                        -0.787
     14       O      3       6.000          6.741                        -0.741
     15       O      3       6.000          6.787                        -0.787
     16       O      3       6.000          6.741                        -0.741
     17       C      4       4.000          4.233                        -0.233
     18       C      4       4.000          3.560                         0.440
     19       C      4       4.000          5.195                        -1.195
     20       C      4       4.000          4.233                        -0.233
     21       C      4       4.000          3.560                         0.440
     22       C      4       4.000          5.195                        -1.195
     23       C      4       4.000          4.233                        -0.233
     24       C      4       4.000          3.560                         0.440
     25       C      4       4.000          5.195                        -1.195
     26       C      4       4.000          4.233                        -0.233
     27       C      4       4.000          3.560                         0.440
     28       C      4       4.000          5.195                        -1.195
     29       H      2       1.000          0.551                         0.449
     30       H      2       1.000          0.454                         0.546
     31       H      2       1.000          0.449                         0.551
     32       H      2       1.000          0.554                         0.446
     33       H      2       1.000          0.549                         0.451
     34       H      2       1.000          0.448                         0.552
     35       H      2       1.000          0.551                         0.449
     36       H      2       1.000          0.454                         0.546
     37       H      2       1.000          0.449                         0.551
     38       H      2       1.000          0.554                         0.446
     39       H      2       1.000          0.549                         0.451
     40       H      2       1.000          0.448                         0.552
     41       H      2       1.000          0.551                         0.449
     42       H      2       1.000          0.454                         0.546
     43       H      2       1.000          0.449                         0.551
     44       H      2       1.000          0.554                         0.446
     45       H      2       1.000          0.549                         0.451
     46       H      2       1.000          0.448                         0.552
     47       H      2       1.000          0.551                         0.449
     48       H      2       1.000          0.454                         0.546
     49       H      2       1.000          0.449                         0.551
     50       H      2       1.000          0.554                         0.446
     51       H      2       1.000          0.549                         0.451
     52       H      2       1.000          0.448                         0.552

  Total Charge                                                           -0.000
 !-----------------------------------------------------------------------------!

 ENERGY| Total FORCE_EVAL ( QS ) energy [hartree]           -253.010920746731642

 OPT| **************************************************************************
 OPT| Step number                                                              1
 OPT| Optimization method                                                   BFGS
 OPT| Total energy [hartree]                                     -253.0109207467
 OPT| Effective energy change [hartree]                            -0.0098500480
 OPT| Predicted energy change [hartree]                            -0.0070159593
 OPT| Scaling factor                                                0.0000000000
 OPT| Step size                                                     0.0411955884
 OPT| Trust radius                                                  0.4724315332
 OPT| Decrease in energy                                                     YES
 OPT| Used time [s]                                                        6.334
 OPT|
 OPT| Maximum step size                                             0.0411955884
 OPT| Convergence limit for maximum step size                       0.0030000000
 OPT| Maximum step size is converged                                          NO
 OPT|
 OPT| RMS step size                                                 0.0198822336
 OPT| Convergence limit for RMS step size                           0.0015000000
 OPT| RMS step size is converged                                              NO
 OPT|
 OPT| Maximum gradient                                              0.0093287846
 OPT| Convergence limit for maximum gradient                        0.0004500000
 OPT| Maximum gradient is converged                                           NO
 OPT|
 OPT| RMS gradient                                                  0.0034820973
 OPT| Convergence limit for RMS gradient                            0.0003000000
 OPT| RMS gradient is converged                                               NO
 OPT| **************************************************************************

 --------------------------
 OPTIMIZATION STEP:      2
 --------------------------

 Number of electrons:                                                        144
 Number of occupied orbitals:                                                 72
 Number of molecular orbitals:                                                72

 Number of orbital functions:                                                452
 Number of independent orbital functions:                                    452

 Parameters for the always stable predictor-corrector (ASPC) method:

  ASPC order: 0

  B(1) =   2.000000
  B(2) =  -1.000000

 Extrapolation method: ASPC


 SCF WAVEFUNCTION OPTIMIZATION

  Step     Update method      Time    Convergence         Total energy    Change
  ------------------------------------------------------------------------------
     1 Broy./Diag. 0.40E+00    0.3     0.02808046      -253.0148098279 -2.53E+02
     2 Broy./Diag. 0.40E+00    0.4     0.00774795      -252.9728599638  4.19E-02
     3 Broy./Diag. 0.40E+00    0.5     0.00220405      -253.0171032847 -4.42E-02
     4 Broy./Diag. 0.40E+00    0.4     0.00062052      -253.0160455983  1.06E-03
     5 Broy./Diag. 0.40E+00    0.4     0.00011615      -253.0176373185 -1.59E-03
     6 Broy./Diag. 0.40E+00    0.5     0.00007556      -253.0182836450 -6.46E-04
     7 Broy./Diag. 0.40E+00    0.5     0.00001401      -253.0175229173  7.61E-04
     8 Broy./Diag. 0.40E+00    0.5     0.00000825      -253.0177483381 -2.25E-04
     9 Broy./Diag. 0.40E+00    0.5     0.00000232      -253.0177943415 -4.60E-05
    10 Broy./Diag. 0.40E+00    0.5     0.00000080      -253.0177761932  1.81E-05
    11 Broy./Diag. 0.40E+00    0.5     0.00000014      -253.0177695833  6.61E-06
    12 Broy./Diag. 0.40E+00    0.5     0.00000004      -253.0177716142 -2.03E-06

  *** SCF run converged in    12 steps ***


  Electronic density on regular grids:       -144.0000000036       -0.0000000036
  Core density on regular grids:              143.9999999923       -0.0000000077
  Total charge density on r-space grids:       -0.0000000113
  Total charge density g-space grids:          -0.0000000113

  Overlap energy of the core charge distribution:               0.00000343776914
  Self energy of the core charge distribution:               -631.12549796049814
  Core Hamiltonian energy:                                    188.10672357676481
  Hartree energy:                                             259.28916981250808
  Exchange-correlation energy:                                -69.28817048071720

  Total energy:                                              -253.01777161417334

[...]
      49     H        2          0.738542                              0.261458
      50     H        2          0.905466                              0.094534
      51     H        2          0.849052                              0.150948
      52     H        2          0.713412                              0.286588
 # Total charge                            144.000000                  0.000000

 !-----------------------------------------------------------------------------!

 !-----------------------------------------------------------------------------!
                           Hirshfeld Charges

  #Atom  Element  Kind  Ref Charge     Population                    Net charge
      1       N      1       5.000          5.940                        -0.940
      2       N      1       5.000          5.940                        -0.940
      3       N      1       5.000          5.940                        -0.940
      4       N      1       5.000          5.940                        -0.940
      5       H      2       1.000          0.554                         0.446
      6       H      2       1.000          0.554                         0.446
      7       H      2       1.000          0.554                         0.446
      8       H      2       1.000          0.554                         0.446
      9       O      3       6.000          6.796                        -0.796
     10       O      3       6.000          6.724                        -0.724
     11       O      3       6.000          6.796                        -0.796
     12       O      3       6.000          6.724                        -0.724
     13       O      3       6.000          6.796                        -0.796
     14       O      3       6.000          6.724                        -0.724
     15       O      3       6.000          6.796                        -0.796
     16       O      3       6.000          6.724                        -0.724
     17       C      4       4.000          4.230                        -0.230
     18       C      4       4.000          3.562                         0.438
     19       C      4       4.000          5.201                        -1.201
     20       C      4       4.000          4.230                        -0.230
     21       C      4       4.000          3.562                         0.438
     22       C      4       4.000          5.201                        -1.201
     23       C      4       4.000          4.230                        -0.230
     24       C      4       4.000          3.562                         0.438
     25       C      4       4.000          5.201                        -1.201
     26       C      4       4.000          4.230                        -0.230
     27       C      4       4.000          3.562                         0.438
     28       C      4       4.000          5.201                        -1.201
     29       H      2       1.000          0.554                         0.446
     30       H      2       1.000          0.454                         0.546
     31       H      2       1.000          0.432                         0.568
     32       H      2       1.000          0.555                         0.445
     33       H      2       1.000          0.547                         0.453
     34       H      2       1.000          0.450                         0.550
     35       H      2       1.000          0.554                         0.446
     36       H      2       1.000          0.454                         0.546
     37       H      2       1.000          0.432                         0.568
     38       H      2       1.000          0.555                         0.445
     39       H      2       1.000          0.547                         0.453
     40       H      2       1.000          0.450                         0.550
     41       H      2       1.000          0.554                         0.446
     42       H      2       1.000          0.454                         0.546
     43       H      2       1.000          0.432                         0.568
     44       H      2       1.000          0.555                         0.445
     45       H      2       1.000          0.547                         0.453
     46       H      2       1.000          0.450                         0.550
     47       H      2       1.000          0.554                         0.446
     48       H      2       1.000          0.454                         0.546
     49       H      2       1.000          0.432                         0.568
     50       H      2       1.000          0.555                         0.445
     51       H      2       1.000          0.547                         0.453
     52       H      2       1.000          0.450                         0.550

  Total Charge                                                           -0.000
 !-----------------------------------------------------------------------------!

 ENERGY| Total FORCE_EVAL ( QS ) energy [hartree]           -253.030161958089593

 -------------------------------------------------------------------------------
 -                                                                             -
 -                                DBCSR STATISTICS                             -
 -                                                                             -
 -------------------------------------------------------------------------------
 COUNTER                                    TOTAL       BLAS       SMM       ACC
 flops     5 x     8 x     5             26028800     100.0%      0.0%      0.0%     
 flops    13 x     8 x     5             58007040     100.0%      0.0%      0.0%     
 flops     5 x     8 x    13             58007040     100.0%      0.0%      0.0%     
 flops    13 x     8 x    13            129272832     100.0%      0.0%      0.0%     
 flops     5 x    32 x     5            208230400     100.0%      0.0%      0.0%     
 flops    13 x    32 x     5            464056320     100.0%      0.0%      0.0%     
 flops     5 x    32 x    13            464056320     100.0%      0.0%      0.0%     
 flops     5 x     5 x    72            470635200     100.0%      0.0%      0.0%     
 flops    13 x     5 x    72           1012677120     100.0%      0.0%      0.0%     
 flops     5 x    13 x    72           1012677120     100.0%      0.0%      0.0%     
 flops    13 x    32 x    13           1034182656     100.0%      0.0%      0.0%     
 flops    13 x    13 x    72           2350857600     100.0%      0.0%      0.0%     
 flops inhomo. stacks                           0       0.0%      0.0%      0.0%
 flops total                         7.288688E+09     100.0%      0.0%      0.0%
 flops max/rank                      7.288688E+09     100.0%      0.0%      0.0%
 matmuls inhomo. stacks                         0       0.0%      0.0%      0.0%
 matmuls total                            1117012     100.0%      0.0%      0.0%
 number of processed stacks                 15616     100.0%      0.0%      0.0%
 average stack size                                    71.5       0.0       0.0
 marketing flops                    11.914943E+09
 -------------------------------------------------------------------------------
 # multiplications                            405
 max memory usage/rank               0.000000E+00
 # max total images/rank                        1
 # max 3D layers                                1
 # MPI messages exchanged                       0
 -------------------------------------------------------------------------------
 -                                                                             -
 -                      DBCSR MESSAGE PASSING PERFORMANCE                      -
 -                                                                             -
 -------------------------------------------------------------------------------
 ROUTINE             CALLS      AVE VOLUME [Bytes]
 MP_Bcast               13                     12.
 MP_Allreduce         2498                      8.
 MP_Alltoall          8390                 557164.
 MP_ISend             1620                   8342.
 MP_IRecv             1620                   8342.
 -------------------------------------------------------------------------------

 -------------------------------------------------------------------------------
 -                                                                             -
 -                                DBM STATISTICS                               -
 -                                                                             -
 -------------------------------------------------------------------------------
    M  x    N  x    K                                          COUNT     PERCENT
 -------------------------------------------------------------------------------

 -------------------------------------------------------------------------------
 -                                                                             -
 -                                GRID STATISTICS                              -
 -                                                                             -
 -------------------------------------------------------------------------------
 LP    KERNEL             BACKEND                              COUNT     PERCENT
 1     collocate ortho    CPU                                5567196      20.18%
 1     integrate ortho    CPU                                5289048      19.17%
 2     integrate ortho    CPU                                4724292      17.13%
 2     collocate ortho    CPU                                4671032      16.93%
 0     collocate ortho    CPU                                2193744       7.95%
 0     integrate ortho    CPU                                2017704       7.31%
 3     integrate ortho    CPU                                1538968       5.58%
 3     collocate ortho    CPU                                1282600       4.65%
 4     integrate ortho    CPU                                 190220       0.69%
 4     collocate ortho    CPU                                  99588       0.36%
 5     integrate ortho    CPU                                   7668       0.03%
 0     collocate general  CPU                                   2496       0.01%
 0     integrate general  CPU                                   1248       0.00%
 1     integrate general  CPU                                   1196       0.00%
 -------------------------------------------------------------------------------

 MEMORY| Estimated peak process memory [MiB]                                   0

 -------------------------------------------------------------------------------
 ----                             MULTIGRID INFO                            ----
 -------------------------------------------------------------------------------
 count for grid        1:         305616          cutoff [a.u.]          150.00
 count for grid        2:         579128          cutoff [a.u.]           50.00
 count for grid        3:         239304          cutoff [a.u.]           16.67
 count for grid        4:             40          cutoff [a.u.]            5.56
 total gridlevel count  :        1124088

 -------------------------------------------------------------------------------
 -                                                                             -
 -                         MESSAGE PASSING PERFORMANCE                         -
 -                                                                             -
 -------------------------------------------------------------------------------

 ROUTINE             CALLS      AVE VOLUME [Bytes]
 MP_Group                4
 MP_Bcast              679                   1894.
 MP_Allreduce         4846                    167.
 MP_Sync               302
 MP_comm_split         298
 -------------------------------------------------------------------------------


 -------------------------------------------------------------------------------
 -                                                                             -
 -                           R E F E R E N C E S                               -
 -                                                                             -
 -------------------------------------------------------------------------------
 
 CP2K version 2025.1, the CP2K developers group (2025).
 CP2K is freely available from https://www.cp2k.org/ .
 
 T. D. Kuehne, M. Iannuzzi, M. Del Ben, V. V. Rybkin, P. Seewald, F. Stein, T. 
 Laino, R. Z. Khaliullin, O. Schuett, F. Schiffmann, D. Golze, J. Wilhelm, S. 
 Chulkov, M. H. Bani-Hashemian, V. Weber, U. Borstnik, M. Taillefumier, A. S. 
 Jakobovits, A. Lazzaro, H. Pabst, T. Mueller, R. Schade, M. Guidon, S. 
 Andermatt, N. Holmberg, G. K. Schenter, A. Hehn, A. Bussy, F. Belleflamme, G. 
 Tabacchi, A. Gloess, M. Lass, I. Bethune, C. J. Mundy, C. Plessl, M. Watkins, 
 J. VandeVondele, M. Krack, J. Hutter.
 J. Chem. Phys. 152, 194103 (2020).
 CP2K: An electronic structure and molecular dynamics software package - 
 Quickstep: Efficient and accurate electronic structure calculations.
 https://doi.org/10.1063/5.0007045

 O. Schuett, P. Messmer, J. Hutter, J. VandeVondele.
 Electronic Structure Calculations on Graphics Processing Units, 173-190 (2016).
 GPU-Accelerated Sparse Matrix-Matrix Multiplication for Linear Scaling Density 
 Functional Theory.
 https://doi.org/10.1002/9781118670712.ch8

 J. Hutter, M. Iannuzzi, F. Schiffmann, J. VandeVondele.
 WIREs Comput Mol Sci. 4, 15-25 (2014).
 CP2K: atomistic simulations of condensed matter systems.
 https://doi.org/10.1002/wcms.1159

 U. Borstnik, J. VandeVondele, V. Weber, J. Hutter.
 Parallel Comput. 40, 47-58 (2014).
 Sparse matrix multiplication: The distributed block-compressed sparse row 
 library.
 https://doi.org/10.1016/j.parco.2014.03.012

 T. D. Khne, M. Krack, F. R. Mohamed, M. Parrinello.
 Phys. Rev. Lett. 98, 066401 (2007).
 Efficient and accurate Car-Parrinello-like approach to Born-Oppenheimer 
 molecular dynamics.
 https://doi.org/10.1103/PhysRevLett.98.066401

 J. VandeVondele, M. Krack, F. Mohamed, M. Parrinello, T. Chassaing, J. Hutter.
 Comput. Phys. Commun. 167, 103-128 (2005).
 QUICKSTEP: Fast and accurate density functional calculations using a mixed 
 Gaussian and plane waves approach.
 https://doi.org/10.1016/j.cpc.2004.12.014

 M. Krack.
 Theor. Chem. Acc. 114, 145-152 (2005).
 Pseudopotentials for H to Kr optimized for gradient-corrected 
 exchange-correlation functionals.
 https://doi.org/10.1007/s00214-005-0655-y

 M. Frigo, S. G. Johnson.
 Proc. IEEE 93, 216-231 (2005).
 The design and implementation of FFTW3.
 https://doi.org/10.1109/JPROC.2004.840301

 J. Kolafa.
 J. Comput. Chem. 25, 335-342 (2004).
 Time-reversible always stable predictor-corrector method for molecular dynamics 
 of polarizable molecules.
 https://doi.org/10.1002/jcc.10385

 C. Hartwigsen, S. Goedecker, J. Hutter.
 Phys. Rev. B 58, 3641-3662 (1998).
 Relativistic separable dual-space Gaussian pseudopotentials from H to Rn.
 https://doi.org/10.1103/PhysRevB.58.3641

 G. Lippert, J. Hutter, M. Parrinello.
 Mol. Phys. 92, 477-487 (1997).
 A hybrid Gaussian and plane wave density functional scheme.
 https://doi.org/10.1080/002689797170220

 S. Goedecker, M. Teter, J. Hutter.
 Phys. Rev. B 54, 1703-1710 (1996).
 Separable dual-space Gaussian pseudopotentials.
 https://doi.org/10.1103/PhysRevB.54.1703

 J. P. Perdew, K. Burke, M. Ernzerhof.
 Phys. Rev. Lett. 77, 3865-3868 (1996).
 Generalized gradient approximation made simple.
 https://doi.org/10.1103/PhysRevLett.77.3865


 -------------------------------------------------------------------------------
 -                                                                             -
 -                                T I M I N G                                  -
 -                                                                             -
 -------------------------------------------------------------------------------
 SUBROUTINE                       CALLS  ASD         SELF TIME        TOTAL TIME
                                MAXIMUM       AVERAGE  MAXIMUM  AVERAGE  MAXIMUM
 CP2K                                 1  1.0    0.008    0.008  151.517  151.517
 cp_geo_opt                           1  2.0    0.001    0.001  151.401  151.401
 geoopt_bfgs                          1  3.0    0.008    0.008  151.400  151.400
 cp_eval_at                          24  4.0    0.001    0.001  151.247  151.247
 qs_forces                           23  5.0    0.003    0.003  144.931  144.931
 qs_energies                         24  6.0    0.001    0.001  142.824  142.824
 scf_env_do_scf                      24  7.0    0.001    0.001  134.229  134.229
 scf_env_do_scf_inner_loop          275  8.0    0.017    0.017  134.229  134.229
 rebuild_ks_matrix                  298  9.7    0.000    0.000   68.087   68.087
 qs_ks_build_kohn_sham_matrix       298 10.7    0.017    0.017   68.087   68.087
 qs_ks_update_qs_env                275  9.0    0.001    0.001   61.971   61.971
 qs_rho_update_rho_low              299  9.0    0.001    0.001   52.822   52.822
 calculate_rho_elec                 299 10.0    0.671    0.671   52.821   52.821
 sum_up_and_integrate               298 11.7    0.002    0.002   51.075   51.075
 integrate_v_rspace                 298 12.7    0.051    0.051   51.003   51.003
 grid_collocate_task_list           299 11.0   49.515   49.515   49.515   49.515
 grid_integrate_task_list           298 13.7   49.427   49.427   49.427   49.427
 qs_scf_new_mos                     275  9.0    0.002    0.002   16.079   16.079
 eigensolver                        275 10.0    0.002    0.002   14.460   14.460
 qs_vxc_create                      298 11.7    0.002    0.002   14.103   14.103
 xc_vxc_pw_create                   298 12.7    0.770    0.770   14.101   14.101
 cp_fm_syevd                        298 10.4    0.001    0.001   11.639   11.639
 cp_fm_syevd_base                   298 11.4   11.429   11.429   11.429   11.429
 fft_wrap_pw1pw2                   5346 13.9    0.028    0.028   10.849   10.849
 fft_wrap_pw1pw2_150               3555 15.2    0.828    0.828    9.934    9.934
 xc_rho_set_and_dset_create         298 13.7    0.294    0.294    9.051    9.051
 gspace_mixing                      251  9.0    0.536    0.536    7.446    7.446
 fft3d_s                           5347 15.9    6.706    6.706    6.712    6.712
 broyden_mixing                     251 10.0    6.239    6.239    6.240    6.240
 qs_ks_update_qs_env_forces          23  6.0    0.000    0.000    6.187    6.187
 xc_pw_derive                      1788 14.7    0.005    0.005    6.184    6.184
 xc_functional_eval                 298 14.7    0.001    0.001    5.425    5.425
 pbe_lda_eval                       298 15.7    5.424    5.424    5.424    5.424
 init_scf_run                        24  7.0    0.001    0.001    5.339    5.339
 scf_env_initial_rho_setup           24  8.0    0.000    0.000    5.232    5.232
 wfi_extrapolate                     24  9.0    0.001    0.001    4.767    4.767
 xc_pw_divergence                   298 13.7    0.003    0.003    4.146    4.146
 -------------------------------------------------------------------------------

 The number of warnings for this run is : 0
 
 -------------------------------------------------------------------------------
  **** **** ******  **  PROGRAM ENDED AT                 2025-09-02 10:03:33.090
 ***** ** ***  *** **   PROGRAM RAN ON            staff-205-210.eduroam.unibe.ch
 **    ****   ******    PROGRAM RAN BY                                  michelle
 ***** **    ** ** **   PROGRAM PROCESS ID                                 34614
  **** **  *******  **  PROGRAM STOPPED IN /Users/michelle/Desktop/Work/Conferen
                                           ces_Talks/SCrS2025/CP2K_exercises

