 DBCSR| CPU Multiplication driver                                           BLAS (U)
 DBCSR| Multrec recursion limit                                              512 (U)
 DBCSR| Multiplication stack size                                           1000 (D)
 DBCSR| Maximum elements for images                                    UNLIMITED (U)
 DBCSR| Multiplicative factor virtual images                                   1 (U)
 DBCSR| Use multiplication densification                                       T (D)
 DBCSR| Multiplication size stacks                                             3 (U)
 DBCSR| Use memory pool for CPU allocation                                     F (U)
 DBCSR| Number of 3D layers                                               SINGLE (U)
 DBCSR| Use MPI memory allocation                                              F (U)
 DBCSR| Use RMA algorithm                                                      F (U)
 DBCSR| Use Communication thread                                               T (U)
 DBCSR| Communication thread load                                             60 (D)
 DBCSR| MPI: My process id                                                     0
 DBCSR| MPI: Number of processes                                               1
 DBCSR| OMP: Current number of threads                                         8
 DBCSR| OMP: Max number of threads                                             8
 DBCSR| Split modifier for TAS multiplication algorithm                  1.0E+00 (U)


  **** **** ******  **  PROGRAM STARTED AT               2025-09-02 09:46:36.415
 ***** ** ***  *** **   PROGRAM STARTED ON        staff-205-210.eduroam.unibe.ch
 **    ****   ******    PROGRAM STARTED BY                              michelle
 ***** **    ** ** **   PROGRAM PROCESS ID                                 34460
  **** **  *******  **  PROGRAM STARTED IN /Users/michelle/Desktop/Work/Conferen
                                           ces_Talks/SCrS2025/CP2K_exercises

 CP2K| version string:                                       CP2K version 2025.1
 CP2K| source code revision number:                                             
 CP2K| cp2kflags: omp libint fftw3 libxc parallel scalapack no_statm_access     
 CP2K| is freely available from                            https://www.cp2k.org/
 CP2K| Program compiled at                                   2025-01-01 12:26:53
 CP2K| Program compiled on                                                      
 CP2K| Program compiled for                                                arm64
 CP2K| Data directory path      /opt/homebrew/Cellar/cp2k/2025.1/share/cp2k/data
 CP2K| Input file name                                              Lalanine.inp

 GLOBAL| Force Environment number                                              1
 GLOBAL| Basis set file name                                           BASIS_SET
 GLOBAL| Potential file name                                      GTH_POTENTIALS
 GLOBAL| MM Potential file name                                     MM_POTENTIAL
 GLOBAL| Coordinate file name                                      __STD_INPUT__
 GLOBAL| Method name                                                        CP2K
 GLOBAL| Project name                                                  L-alanine
 GLOBAL| Run type                                                         ENERGY
 GLOBAL| FFT library                                                       FFTW3
 GLOBAL| Diagonalization library                                       ScaLAPACK
 GLOBAL| DGEMM library                                                      BLAS
 GLOBAL| Orthonormality check for eigenvectors                          DISABLED
 GLOBAL| Matrix multiplication library                                 ScaLAPACK
 GLOBAL| All-to-all communication in single precision                          F
 GLOBAL| FFTs using library dependent lengths                                  F
 GLOBAL| Grid backend                                                       AUTO
 GLOBAL| Global print level                                               MEDIUM
 GLOBAL| MPI I/O enabled                                                       T
 GLOBAL| Total number of message passing processes                             1
 GLOBAL| Number of threads for this process                                    8
 GLOBAL| This output is from process                                           0
 GLOBAL| OpenMP stack size per thread (OMP_STACKSIZE)                    default
 GLOBAL| CPU model name                                                  UNKNOWN
 GLOBAL| CPUID                                                              2000

 MEMORY| system memory details [Kb]
 MEMORY|                        rank 0           min           max       average
 MEMORY| MemTotal                    0             0             0             0
 MEMORY| MemFree                     0             0             0             0
 MEMORY| Buffers                     0             0             0             0
 MEMORY| Cached                      0             0             0             0
 MEMORY| Slab                        0             0             0             0
 MEMORY| SReclaimable                0             0             0             0
 MEMORY| MemLikelyFree               0             0             0             0


 *** Fundamental physical constants (SI units) ***

 *** Literature: B. J. Mohr and B. N. Taylor,
 ***             CODATA recommended values of the fundamental physical
 ***             constants: 2006, Web Version 5.1
 ***             http://physics.nist.gov/constants

 Speed of light in vacuum [m/s]                             2.99792458000000E+08
 Magnetic constant or permeability of vacuum [N/A**2]       1.25663706143592E-06
 Electric constant or permittivity of vacuum [F/m]          8.85418781762039E-12
 Planck constant (h) [J*s]                                  6.62606896000000E-34
 Planck constant (h-bar) [J*s]                              1.05457162825177E-34
 Elementary charge [C]                                      1.60217648700000E-19
 Electron mass [kg]                                         9.10938215000000E-31
 Electron g factor [ ]                                     -2.00231930436220E+00
 Proton mass [kg]                                           1.67262163700000E-27
 Fine-structure constant                                    7.29735253760000E-03
 Rydberg constant [1/m]                                     1.09737315685270E+07
 Avogadro constant [1/mol]                                  6.02214179000000E+23
 Boltzmann constant [J/K]                                   1.38065040000000E-23
 Atomic mass unit [kg]                                      1.66053878200000E-27
 Bohr radius [m]                                            5.29177208590000E-11

 *** Conversion factors ***

 [u] -> [a.u.]                                              1.82288848426455E+03
 [Angstrom] -> [Bohr] = [a.u.]                              1.88972613288564E+00
 [a.u.] = [Bohr] -> [Angstrom]                              5.29177208590000E-01
 [a.u.] -> [s]                                              2.41888432650478E-17
 [a.u.] -> [fs]                                             2.41888432650478E-02
 [a.u.] -> [J]                                              4.35974393937059E-18
 [a.u.] -> [N]                                              8.23872205491840E-08
 [a.u.] -> [K]                                              3.15774647902944E+05
 [a.u.] -> [kJ/mol]                                         2.62549961709828E+03
 [a.u.] -> [kcal/mol]                                       6.27509468713739E+02
 [a.u.] -> [Pa]                                             2.94210107994716E+13
 [a.u.] -> [bar]                                            2.94210107994716E+08
 [a.u.] -> [atm]                                            2.90362800883016E+08
 [a.u.] -> [eV]                                             2.72113838565563E+01
 [a.u.] -> [Hz]                                             6.57968392072181E+15
 [a.u.] -> [1/cm] (wave numbers)                            2.19474631370540E+05
 [a.u./Bohr**2] -> [1/cm]                                   5.14048714338585E+03
 

 CELL_TOP| Volume [angstrom^3]:                                       423.301293
 CELL_TOP| Vector a [angstrom     5.940     0.000     0.000   |a| =     5.940000
 CELL_TOP| Vector b [angstrom     0.000    12.274     0.000   |b| =    12.274000
 CELL_TOP| Vector c [angstrom     0.000     0.000     5.806   |c| =     5.806000
 CELL_TOP| Angle (b,c), alpha [degree]:                                90.000000
 CELL_TOP| Angle (a,c), beta  [degree]:                                90.000000
 CELL_TOP| Angle (a,b), gamma [degree]:                                90.000000
 CELL_TOP| Numerically orthorhombic:                                         YES
 CELL_TOP| Periodicity                                                       XYZ

 GENERATE|  Preliminary Number of Bonds generated:                             0
 GENERATE|  Achieved consistency in connectivity generation.

 CELL| Volume [angstrom^3]:                                           423.301293
 CELL| Vector a [angstrom]:       5.940     0.000     0.000   |a| =     5.940000
 CELL| Vector b [angstrom]:       0.000    12.274     0.000   |b| =    12.274000
 CELL| Vector c [angstrom]:       0.000     0.000     5.806   |c| =     5.806000
 CELL| Angle (b,c), alpha [degree]:                                    90.000000
 CELL| Angle (a,c), beta  [degree]:                                    90.000000
 CELL| Angle (a,b), gamma [degree]:                                    90.000000
 CELL| Numerically orthorhombic:                                             YES
 CELL| Periodicity                                                           XYZ

 CELL_REF| Volume [angstrom^3]:                                       423.301293
 CELL_REF| Vector a [angstrom     5.940     0.000     0.000   |a| =     5.940000
 CELL_REF| Vector b [angstrom     0.000    12.274     0.000   |b| =    12.274000
 CELL_REF| Vector c [angstrom     0.000     0.000     5.806   |c| =     5.806000
 CELL_REF| Angle (b,c), alpha [degree]:                                90.000000
 CELL_REF| Angle (a,c), beta  [degree]:                                90.000000
 CELL_REF| Angle (a,b), gamma [degree]:                                90.000000
 CELL_REF| Numerically orthorhombic:                                         YES
 CELL_REF| Periodicity                                                       XYZ

 *******************************************************************************
 *******************************************************************************
 **                                                                           **
 **     #####                         ##              ##                      **
 **    ##   ##            ##          ##              ##                      **
 **   ##     ##                       ##            ######                    **
 **   ##     ##  ##   ##  ##   #####  ##  ##   ####   ##    #####    #####    **
 **   ##     ##  ##   ##  ##  ##      ## ##   ##      ##   ##   ##  ##   ##   **
 **   ##  ## ##  ##   ##  ##  ##      ####     ###    ##   ######   ######    **
 **    ##  ###   ##   ##  ##  ##      ## ##      ##   ##   ##       ##        **
 **     #######   #####   ##   #####  ##  ##  ####    ##    #####   ##        **
 **           ##                                                    ##        **
 **                                                                           **
 **                                                ... make the atoms dance   **
 **                                                                           **
 **            Copyright (C) by CP2K developers group (2000-2025)             **
 **                      J. Chem. Phys. 152, 194103 (2020)                    **
 **                                                                           **
 *******************************************************************************

 DFT| Spin restricted Kohn-Sham (RKS) calculation                            RKS
 DFT| Multiplicity                                                             1
 DFT| Number of spin states                                                    1
 DFT| Charge                                                                   0
 DFT| Self-interaction correction (SIC)                                       NO
 DFT| Cutoffs: density                                              1.000000E-10
 DFT|          gradient                                             1.000000E-10
 DFT|          tau                                                  1.000000E-10
 DFT|          cutoff_smoothing_range                               0.000000E+00
 DFT| XC density smoothing                                                  NONE
 DFT| XC derivatives                                                          PW

 FUNCTIONAL| PBE:
 FUNCTIONAL| J.P.Perdew, K.Burke, M.Ernzerhof, Phys. Rev. Letter, vol. 77, n 18,
 FUNCTIONAL|  pp. 3865-3868, (1996) {spin unpolarized}                          


 QS| Method:                                                                 GPW
 QS| Density plane wave grid type                        NON-SPHERICAL FULLSPACE
 QS| Number of grid levels:                                                    4
 QS| Density cutoff [a.u.]:                                                150.0
 QS| Multi grid cutoff [a.u.]: 1) grid level                               150.0
 QS|                           2) grid level                                50.0
 QS|                           3) grid level                                16.7
 QS|                           4) grid level                                 5.6
 QS| Grid level progression factor:                                          3.0
 QS| Relative density cutoff [a.u.]:                                        30.0
 QS| Interaction thresholds: eps_pgf_orb:                                1.0E-05
 QS|                         eps_filter_matrix:                          0.0E+00
 QS|                         eps_core_charge:                            1.0E-12
 QS|                         eps_rho_gspace:                             1.0E-10
 QS|                         eps_rho_rspace:                             1.0E-10
 QS|                         eps_gvg_rspace:                             1.0E-05
 QS|                         eps_ppl:                                    1.0E-02
 QS|                         eps_ppnl:                                   1.0E-07


 ATOMIC KIND INFORMATION

  1. Atomic kind: H                                     Number of atoms:      28

     Orbital Basis Set                                              DZVP-GTH-PBE

       Number of orbital shell sets:                                           2
       Number of orbital shells:                                               3
       Number of primitive Cartesian functions:                                5
       Number of Cartesian basis functions:                                    5
       Number of spherical basis functions:                                    5
       Norm type:                                                              2

       Normalised Cartesian orbitals:

                        Set   Shell   Orbital            Exponent    Coefficient

                          1       1    1s                8.448693      -0.102587
                                                         1.858165      -0.150628
                                                         0.507611      -0.174074
                                                         0.167390      -0.102410

                          1       2    2s                8.448693       0.000000
                                                         1.858165       0.000000
                                                         0.507611       0.000000
                                                         0.167390       0.186513

                          2       1    2px               0.700000       0.912668
                          2       1    2py               0.700000       0.912668
                          2       1    2pz               0.700000       0.912668

       Atomic covalent radius [Angstrom]:                                  0.320

       Atomic van der Waals radius [Angstrom]:                             1.090

     GTH Potential information for                                    GTH-PBE-q1

       Description:                       Goedecker-Teter-Hutter pseudopotential
                                           Goedecker et al., PRB 54, 1703 (1996)
                                          Hartwigsen et al., PRB 58, 3641 (1998)
                                                      Krack, TCA 114, 145 (2005)

       Gaussian exponent of the core charge distribution:              12.500000
       Electronic configuration (s p d ...):                                   1

       Parameters of the local part of the GTH pseudopotential:

                          rloc        C1          C2          C3          C4
                        0.200000   -4.178900    0.724463

  2. Atomic kind: O                                     Number of atoms:       8

     Orbital Basis Set                                              DZVP-GTH-PBE

       Number of orbital shell sets:                                           2
       Number of orbital shells:                                               5
       Number of primitive Cartesian functions:                                5
       Number of Cartesian basis functions:                                   14
       Number of spherical basis functions:                                   13
       Norm type:                                                              2

       Normalised Cartesian orbitals:

                        Set   Shell   Orbital            Exponent    Coefficient

                          1       1    2s                8.296892       0.530066
                                                         2.431407      -0.056575
                                                         0.754761      -0.411691
                                                         0.210234      -0.081134

                          1       2    3s                8.296892       0.000000
                                                         2.431407       0.000000
                                                         0.754761       0.000000
                                                         0.210234       0.221278

                          1       3    3px               8.296892      -1.978529
                                                         2.431407      -1.306377
                                                         0.754761      -0.481422
                                                         0.210234      -0.076002
                          1       3    3py               8.296892      -1.978529
                                                         2.431407      -1.306377
                                                         0.754761      -0.481422
                                                         0.210234      -0.076002
                          1       3    3pz               8.296892      -1.978529
                                                         2.431407      -1.306377
                                                         0.754761      -0.481422
                                                         0.210234      -0.076002

                          1       4    4px               8.296892       0.000000
                                                         2.431407       0.000000
                                                         0.754761       0.000000
                                                         0.210234       0.202917
                          1       4    4py               8.296892       0.000000
                                                         2.431407       0.000000
                                                         0.754761       0.000000
                                                         0.210234       0.202917
                          1       4    4pz               8.296892       0.000000
                                                         2.431407       0.000000
                                                         0.754761       0.000000
                                                         0.210234       0.202917

                          2       1    3dx2              0.800000       1.113825
                          2       1    3dxy              0.800000       1.929201
                          2       1    3dxz              0.800000       1.929201
                          2       1    3dy2              0.800000       1.113825
                          2       1    3dyz              0.800000       1.929201
                          2       1    3dz2              0.800000       1.113825

       Atomic covalent radius [Angstrom]:                                  0.730

       Atomic van der Waals radius [Angstrom]:                             1.520

     GTH Potential information for                                    GTH-PBE-q6

       Description:                       Goedecker-Teter-Hutter pseudopotential
                                           Goedecker et al., PRB 54, 1703 (1996)
                                          Hartwigsen et al., PRB 58, 3641 (1998)
                                                      Krack, TCA 114, 145 (2005)

       Gaussian exponent of the core charge distribution:               8.360253
       Electronic configuration (s p d ...):                               2   4

       Parameters of the local part of the GTH pseudopotential:

                          rloc        C1          C2          C3          C4
                        0.244554  -16.667215    2.487311

       Parameters of the non-local part of the GTH pseudopotential:

                   l      r(l)      h(i,j,l)

                   0    0.220956   18.337458
                   1    0.211332

  3. Atomic kind: N                                     Number of atoms:       4

     Orbital Basis Set                                              DZVP-GTH-PBE

       Number of orbital shell sets:                                           2
       Number of orbital shells:                                               5
       Number of primitive Cartesian functions:                                5
       Number of Cartesian basis functions:                                   14
       Number of spherical basis functions:                                   13
       Norm type:                                                              2

       Normalised Cartesian orbitals:

                        Set   Shell   Orbital            Exponent    Coefficient

                          1       1    2s                6.164619       0.420336
                                                         1.803721      -0.037610
                                                         0.565851      -0.331484
                                                         0.160330      -0.066869

                          1       2    3s                6.164619       0.000000
                                                         1.803721       0.000000
                                                         0.565851       0.000000
                                                         0.160330       0.180580

                          1       3    3px               6.164619      -1.298978
                                                         1.803721      -0.867695
                                                         0.565851      -0.335435
                                                         0.160330      -0.055666
                          1       3    3py               6.164619      -1.298978
                                                         1.803721      -0.867695
                                                         0.565851      -0.335435
                                                         0.160330      -0.055666
                          1       3    3pz               6.164619      -1.298978
                                                         1.803721      -0.867695
                                                         0.565851      -0.335435
                                                         0.160330      -0.055666

                          1       4    4px               6.164619       0.000000
                                                         1.803721       0.000000
                                                         0.565851       0.000000
                                                         0.160330       0.144613
                          1       4    4py               6.164619       0.000000
                                                         1.803721       0.000000
                                                         0.565851       0.000000
                                                         0.160330       0.144613
                          1       4    4pz               6.164619       0.000000
                                                         1.803721       0.000000
                                                         0.565851       0.000000
                                                         0.160330       0.144613

                          2       1    3dx2              0.700000       0.881721
                          2       1    3dxy              0.700000       1.527185
                          2       1    3dxz              0.700000       1.527185
                          2       1    3dy2              0.700000       0.881721
                          2       1    3dyz              0.700000       1.527185
                          2       1    3dz2              0.700000       0.881721

       Atomic covalent radius [Angstrom]:                                  0.750

       Atomic van der Waals radius [Angstrom]:                             1.550

     GTH Potential information for                                    GTH-PBE-q5

       Description:                       Goedecker-Teter-Hutter pseudopotential
                                           Goedecker et al., PRB 54, 1703 (1996)
                                          Hartwigsen et al., PRB 58, 3641 (1998)
                                                      Krack, TCA 114, 145 (2005)

       Gaussian exponent of the core charge distribution:               6.208322
       Electronic configuration (s p d ...):                               2   3

       Parameters of the local part of the GTH pseudopotential:

                          rloc        C1          C2          C3          C4
                        0.283791  -12.415226    1.868096

       Parameters of the non-local part of the GTH pseudopotential:

                   l      r(l)      h(i,j,l)

                   0    0.255405   13.630263
                   1    0.245495

  4. Atomic kind: C                                     Number of atoms:      12

     Orbital Basis Set                                              DZVP-GTH-PBE

       Number of orbital shell sets:                                           2
       Number of orbital shells:                                               5
       Number of primitive Cartesian functions:                                5
       Number of Cartesian basis functions:                                   14
       Number of spherical basis functions:                                   13
       Norm type:                                                              2

       Normalised Cartesian orbitals:

                        Set   Shell   Orbital            Exponent    Coefficient

                          1       1    2s                4.365761       0.317724
                                                         1.274963      -0.017959
                                                         0.405288      -0.256998
                                                         0.117272      -0.054292

                          1       2    3s                4.365761       0.000000
                                                         1.274963       0.000000
                                                         0.405288       0.000000
                                                         0.117272       0.142825

                          1       3    3px               4.365761      -0.777347
                                                         1.274963      -0.529750
                                                         0.405288      -0.219987
                                                         0.117272      -0.039472
                          1       3    3py               4.365761      -0.777347
                                                         1.274963      -0.529750
                                                         0.405288      -0.219987
                                                         0.117272      -0.039472
                          1       3    3pz               4.365761      -0.777347
                                                         1.274963      -0.529750
                                                         0.405288      -0.219987
                                                         0.117272      -0.039472

                          1       4    4px               4.365761       0.000000
                                                         1.274963       0.000000
                                                         0.405288       0.000000
                                                         0.117272       0.097821
                          1       4    4py               4.365761       0.000000
                                                         1.274963       0.000000
                                                         0.405288       0.000000
                                                         0.117272       0.097821
                          1       4    4pz               4.365761       0.000000
                                                         1.274963       0.000000
                                                         0.405288       0.000000
                                                         0.117272       0.097821

                          2       1    3dx2              0.600000       0.673247
                          2       1    3dxy              0.600000       1.166097
                          2       1    3dxz              0.600000       1.166097
                          2       1    3dy2              0.600000       0.673247
                          2       1    3dyz              0.600000       1.166097
                          2       1    3dz2              0.600000       0.673247

       Atomic covalent radius [Angstrom]:                                  0.770

       Atomic van der Waals radius [Angstrom]:                             1.700

     GTH Potential information for                                    GTH-PBE-q4

       Description:                       Goedecker-Teter-Hutter pseudopotential
                                           Goedecker et al., PRB 54, 1703 (1996)
                                          Hartwigsen et al., PRB 58, 3641 (1998)
                                                      Krack, TCA 114, 145 (2005)

       Gaussian exponent of the core charge distribution:               4.364419
       Electronic configuration (s p d ...):                               2   2

       Parameters of the local part of the GTH pseudopotential:

                          rloc        C1          C2          C3          C4
                        0.338471   -8.803674    1.339211

       Parameters of the non-local part of the GTH pseudopotential:

                   l      r(l)      h(i,j,l)

                   0    0.302576    9.622487
                   1    0.291507


 MOLECULE KIND INFORMATION


 All atoms are their own molecule, skipping detailed information


 TOTAL NUMBERS AND MAXIMUM NUMBERS

  Total number of            - Atomic kinds:                                   4
                             - Atoms:                                         52
                             - Shell sets:                                   104
                             - Shells:                                       204
                             - Primitive Cartesian functions:                260
                             - Cartesian basis functions:                    476
                             - Spherical basis functions:                    452

  Maximum angular momentum of- Orbital basis functions:                        2
                             - Local part of the GTH pseudopotential:          2
                             - Non-local part of the GTH pseudopotential:      0


 MODULE QUICKSTEP: ATOMIC COORDINATES IN ANGSTROM

   Atom Kind Element         X             Y             Z       Z(eff)     Mass
      1    1 H     1      2.524500      3.041497      1.962428   1.0000   1.0079
      2    1 H     1      4.629042      2.355381      1.214615   1.0000   1.0079
      3    1 H     1      3.465990      1.827599      0.083606   1.0000   1.0079
      4    2 O     8      2.618649      2.259152      4.418947   6.0000  15.9994
      5    3 N     7      3.844606      1.688657      1.063195   5.0000  14.0067
      6    4 C     6      2.771842      1.976482      2.056775   4.0000  12.0107
      7    4 C     6      3.292304      1.727320      3.482207   4.0000  12.0107
      8    1 H     1      1.144638      1.357504      0.761747   1.0000   1.0079
      9    1 H     1      0.766260      1.280178      2.511095   1.0000   1.0079
     10    4 C     6      1.545885      1.112884      1.760611   4.0000  12.0107
     11    1 H     1      4.191264      0.706982      1.142621   1.0000   1.0079
     12    2 O     8      4.315885      1.027088      3.627589   6.0000  15.9994
     13    1 H     1      1.807542      0.047869      1.771411   1.0000   1.0079
     14    1 H     1      5.494500      3.095503      3.843572   1.0000   1.0079
     15    1 H     1      7.599042      3.781619      4.591385   1.0000   1.0079
     16    1 H     1      6.435990      4.309401      5.722394   1.0000   1.0079
     17    2 O     8      5.588649      3.877848      1.387053   6.0000  15.9994
     18    3 N     7      6.814606      4.448343      4.742805   5.0000  14.0067
     19    4 C     6      5.741842      4.160518      3.749225   4.0000  12.0107
     20    4 C     6      6.262304      4.409680      2.323793   4.0000  12.0107
     21    1 H     1      4.114638      4.779496      5.044253   1.0000   1.0079
     22    1 H     1      3.736260      4.856822      3.294905   1.0000   1.0079
     23    4 C     6      4.515885      5.024116      4.045389   4.0000  12.0107
     24    1 H     1      7.161264      5.430018      4.663379   1.0000   1.0079
     25    2 O     8      7.285885      5.109912      2.178411   6.0000  15.9994
     26    1 H     1      4.777542      6.089131      4.034589   1.0000   1.0079
     27    1 H     1      3.415500      9.178497      0.940572   1.0000   1.0079
     28    1 H     1      1.310958      8.492381      1.688385   1.0000   1.0079
     29    1 H     1      2.474010      7.964599      2.819394   1.0000   1.0079
     30    2 O     8      3.321351      8.396152     -1.515947   6.0000  15.9994
     31    3 N     7      2.095394      7.825657      1.839805   5.0000  14.0067
     32    4 C     6      3.168158      8.113482      0.846225   4.0000  12.0107
     33    4 C     6      2.647696      7.864320     -0.579207   4.0000  12.0107
     34    1 H     1      4.795362      7.494504      2.141253   1.0000   1.0079
     35    1 H     1      5.173740      7.417178      0.391905   1.0000   1.0079
     36    4 C     6      4.394115      7.249884      1.142389   4.0000  12.0107
     37    1 H     1      1.748736      6.843982      1.760379   1.0000   1.0079
     38    2 O     8      1.624115      7.164088     -0.724589   6.0000  15.9994
     39    1 H     1      4.132458      6.184869      1.131589   1.0000   1.0079
     40    1 H     1      0.445500      9.232503      4.865428   1.0000   1.0079
     41    1 H     1     -1.659042      9.918619      4.117615   1.0000   1.0079
     42    1 H     1     -0.495990     10.446401      2.986606   1.0000   1.0079
     43    2 O     8      0.351351     10.014848      7.321947   6.0000  15.9994
     44    3 N     7     -0.874606     10.585343      3.966195   5.0000  14.0067
     45    4 C     6      0.198158     10.297518      4.959776   4.0000  12.0107
     46    4 C     6     -0.322304     10.546680      6.385207   4.0000  12.0107
     47    1 H     1      1.825362     10.916496      3.664747   1.0000   1.0079
     48    1 H     1      2.203740     10.993822      5.414095   1.0000   1.0079
     49    4 C     6      1.424115     11.161116      4.663611   4.0000  12.0107
     50    1 H     1     -1.221264     11.567018      4.045621   1.0000   1.0079
     51    2 O     8     -1.345885     11.246912      6.530589   6.0000  15.9994
     52    1 H     1      1.162458     12.226131      4.674411   1.0000   1.0079



 SCF PARAMETERS         Density guess:                                    ATOMIC
                        --------------------------------------------------------
                        max_scf:                                             300
                        max_scf_history:                                       0
                        max_diis:                                              4
                        --------------------------------------------------------
                        eps_scf:                                        1.00E-07
                        eps_scf_history:                                0.00E+00
                        eps_diis:                                       1.00E-01
                        eps_eigval:                                     1.00E-05
                        --------------------------------------------------------
                        level_shift [a.u.]:                             0.000000
                        --------------------------------------------------------
                        Mixing method:                            BROYDEN_MIXING
                                                charge density mixing in g-space
                        --------------------------------------------------------
                        No outer SCF

 PW_GRID| Information for grid number                                          1
 PW_GRID| Cutoff [a.u.]                                                    150.0
 PW_GRID| spherical cutoff:                                                   NO
 PW_GRID|   Bounds   1            -32      31                Points:          64
 PW_GRID|   Bounds   2            -64      63                Points:         128
 PW_GRID|   Bounds   3            -32      31                Points:          64
 PW_GRID| Volume element (a.u.^3)  0.5448E-02     Volume (a.u.^3)      2856.5788
 PW_GRID| Grid span                                                    FULLSPACE

 PW_GRID| Information for grid number                                          2
 PW_GRID| Number of the reference grid                                         1
 PW_GRID| Cutoff [a.u.]                                                     50.0
 PW_GRID| spherical cutoff:                                                   NO
 PW_GRID|   Bounds   1            -18      17                Points:          36
 PW_GRID|   Bounds   2            -37      37                Points:          75
 PW_GRID|   Bounds   3            -18      17                Points:          36
 PW_GRID| Volume element (a.u.^3)  0.2939E-01     Volume (a.u.^3)      2856.5788
 PW_GRID| Grid span                                                    FULLSPACE

 PW_GRID| Information for grid number                                          3
 PW_GRID| Number of the reference grid                                         1
 PW_GRID| Cutoff [a.u.]                                                     16.7
 PW_GRID| spherical cutoff:                                                   NO
 PW_GRID|   Bounds   1            -12      11                Points:          24
 PW_GRID|   Bounds   2            -22      22                Points:          45
 PW_GRID|   Bounds   3            -12      11                Points:          24
 PW_GRID| Volume element (a.u.^3)  0.1102         Volume (a.u.^3)      2856.5788
 PW_GRID| Grid span                                                    FULLSPACE

 PW_GRID| Information for grid number                                          4
 PW_GRID| Number of the reference grid                                         1
 PW_GRID| Cutoff [a.u.]                                                      5.6
 PW_GRID| spherical cutoff:                                                   NO
 PW_GRID|   Bounds   1             -6       5                Points:          12
 PW_GRID|   Bounds   2            -12      12                Points:          25
 PW_GRID|   Bounds   3             -6       5                Points:          12
 PW_GRID| Volume element (a.u.^3)  0.7935         Volume (a.u.^3)      2856.5788
 PW_GRID| Grid span                                                    FULLSPACE

 POISSON| Solver                                                        PERIODIC
 POISSON| Periodicity                                                        XYZ

 RS_GRID| Information for grid number                                          1
 RS_GRID|   Bounds   1            -32      31                Points:          64
 RS_GRID|   Bounds   2            -64      63                Points:         128
 RS_GRID|   Bounds   3            -32      31                Points:          64

 RS_GRID| Information for grid number                                          2
 RS_GRID|   Bounds   1            -18      17                Points:          36
 RS_GRID|   Bounds   2            -37      37                Points:          75
 RS_GRID|   Bounds   3            -18      17                Points:          36

 RS_GRID| Information for grid number                                          3
 RS_GRID|   Bounds   1            -12      11                Points:          24
 RS_GRID|   Bounds   2            -22      22                Points:          45
 RS_GRID|   Bounds   3            -12      11                Points:          24

 RS_GRID| Information for grid number                                          4
 RS_GRID|   Bounds   1             -6       5                Points:          12
 RS_GRID|   Bounds   2            -12      12                Points:          25
 RS_GRID|   Bounds   3             -6       5                Points:          12

 Number of electrons:                                                        144
 Number of occupied orbitals:                                                 72
 Number of molecular orbitals:                                                72

 Number of orbital functions:                                                452
 Number of independent orbital functions:                                    452

 Extrapolation method: initial_guess

 Atomic guess: The first density matrix is obtained in terms of atomic orbitals
               and electronic configurations assigned to each atomic kind

 Guess for atomic kind: H

 Electronic structure
    Total number of core electrons                                          0.00
    Total number of valence electrons                                       1.00
    Total number of electrons                                               1.00
    Multiplicity                                                   not specified
    S      1.00


 *******************************************************************************
                  Iteration          Convergence                     Energy [au]
 *******************************************************************************
                          1        0.144530E-02                  -0.421821477952
                          2        0.152715E-03                  -0.421823592621
                          3        0.191771E-07                  -0.421823616492

 Energy components [Hartree]           Total Energy ::           -0.421823616492
                                        Band Energy ::           -0.187807257666
                                     Kinetic Energy ::            0.477232994467
                                   Potential Energy ::           -0.899056610959
                                      Virial (-V/T) ::            1.883894494688
                                        Core Energy ::           -0.480275199607
                                          XC Energy ::           -0.252117295815
                                     Coulomb Energy ::            0.310568878930
                       Total Pseudopotential Energy ::           -0.974172273113
                       Local Pseudopotential Energy ::           -0.974172273113
                    Nonlocal Pseudopotential Energy ::            0.000000000000
                                        Confinement ::            0.166640790389

 Orbital energies  State     L     Occupation   Energy[a.u.]          Energy[eV]

                       1     0          1.000      -0.187807           -5.110495


 Total Electron Density at R=0:                                         0.223735

 Guess for atomic kind: O

 Electronic structure
    Total number of core electrons                                          2.00
    Total number of valence electrons                                       6.00
    Total number of electrons                                               8.00
    Multiplicity                                                   not specified
    S   [  2.00] 2.00
    P      4.00


 *******************************************************************************
                  Iteration          Convergence                     Energy [au]
 *******************************************************************************
                          1        0.694773                     -15.572876072979
                          2        0.599956                     -15.583910946470
                          3        0.907248E-02                 -15.649673459031
                          4        0.120200E-02                 -15.649686778808
                          5        0.431187E-03                 -15.649686986327
                          6        0.257811E-03                 -15.649687006017
                          7        0.342019E-06                 -15.649687016972

 Energy components [Hartree]           Total Energy ::          -15.649687016972
                                        Band Energy ::           -2.987337540260
                                     Kinetic Energy ::           11.774422211276
                                   Potential Energy ::          -27.424109228249
                                      Virial (-V/T) ::            2.329125687542
                                        Core Energy ::          -26.138141157448
                                          XC Energy ::           -3.155650577991
                                     Coulomb Energy ::           13.644104718466
                       Total Pseudopotential Energy ::          -37.947438710890
                       Local Pseudopotential Energy ::          -39.250719833869
                    Nonlocal Pseudopotential Energy ::            1.303281122979
                                        Confinement ::            0.348753421662

 Orbital energies  State     L     Occupation   Energy[a.u.]          Energy[eV]

                       1     0          2.000      -0.862130          -23.459753

                       1     1          4.000      -0.315769           -8.592521


 Total Electron Density at R=0:                                         0.000893

 Guess for atomic kind: N

 Electronic structure
    Total number of core electrons                                          2.00
    Total number of valence electrons                                       5.00
    Total number of electrons                                               7.00
    Multiplicity                                                   not specified
    S   [  2.00] 2.00
    P      3.00


 *******************************************************************************
                  Iteration          Convergence                     Energy [au]
 *******************************************************************************
                          1        0.313636                      -9.510720068909
                          2        0.242437                      -9.521697000448
                          3        0.149990E-02                  -9.542182497428
                          4        0.731814E-04                  -9.542183225891
                          5        0.401690E-04                  -9.542183227105
                          6        0.279155E-04                  -9.542183227376
                          7        0.173715E-07                  -9.542183227628

 Energy components [Hartree]           Total Energy ::           -9.542183227628
                                        Band Energy ::           -2.053202783099
                                     Kinetic Energy ::            6.749153912924
                                   Potential Energy ::          -16.291337140553
                                      Virial (-V/T) ::            2.413833993229
                                        Core Energy ::          -15.536724216927
                                          XC Energy ::           -2.162741621823
                                     Coulomb Energy ::            8.157282611122
                       Total Pseudopotential Energy ::          -22.323020459376
                       Local Pseudopotential Energy ::          -23.271345771516
                    Nonlocal Pseudopotential Energy ::            0.948325312140
                                        Confinement ::            0.371423295243

 Orbital energies  State     L     Occupation   Energy[a.u.]          Energy[eV]

                       1     0          2.000      -0.663009          -18.041391

                       1     1          3.000      -0.242395           -6.595903


 Total Electron Density at R=0:                                         0.000586

 Guess for atomic kind: C

 Electronic structure
    Total number of core electrons                                          2.00
    Total number of valence electrons                                       4.00
    Total number of electrons                                               6.00
    Multiplicity                                                   not specified
    S   [  2.00] 2.00
    P      2.00


 *******************************************************************************
                  Iteration          Convergence                     Energy [au]
 *******************************************************************************
                          1        0.105088                      -5.272497406125
                          2        0.668175E-01                  -5.277824046602
                          3        0.198955E-03                  -5.281562636405
                          4        0.119687E-06                  -5.281562669446

 Energy components [Hartree]           Total Energy ::           -5.281562669446
                                        Band Energy ::           -1.319840483322
                                     Kinetic Energy ::            3.390124858794
                                   Potential Energy ::           -8.671687528240
                                      Virial (-V/T) ::            2.557925707587
                                        Core Energy ::           -8.289150749653
                                          XC Energy ::           -1.375859068740
                                     Coulomb Energy ::            4.383447148947
                       Total Pseudopotential Energy ::          -11.713638546297
                       Local Pseudopotential Energy ::          -12.358677078850
                    Nonlocal Pseudopotential Energy ::            0.645038532554
                                        Confinement ::            0.343629378501

 Orbital energies  State     L     Occupation   Energy[a.u.]          Energy[eV]

                       1     0          2.000      -0.484963          -13.196509

                       1     1          2.000      -0.174957           -4.760834


 Total Electron Density at R=0:                                         0.000320
 Re-scaling the density matrix to get the right number of electrons
                  # Electrons              Trace(P)               Scaling factor
                          144               143.965                        1.000


 SCF WAVEFUNCTION OPTIMIZATION

  Step     Update method      Time    Convergence         Total energy    Change
  ------------------------------------------------------------------------------
     1 NoMix/Diag. 0.40E+00    0.3     0.94254635      -251.8297114629 -2.52E+02
     2 Broy./Diag. 0.40E+00    0.4     0.29160842      -234.2500737618  1.76E+01
     3 Broy./Diag. 0.40E+00    0.4     0.08453802      -249.4495981322 -1.52E+01
     4 Broy./Diag. 0.40E+00    0.5     0.03071740      -252.2197197911 -2.77E+00
     5 Broy./Diag. 0.40E+00    0.4     0.01338083      -253.3475091982 -1.13E+00
     6 Broy./Diag. 0.40E+00    0.5     0.00181768      -253.0510068689  2.97E-01
     7 Broy./Diag. 0.40E+00    0.5     0.00104318      -253.0082980041  4.27E-02
     8 Broy./Diag. 0.40E+00    0.5     0.00039088      -252.9978899277  1.04E-02
     9 Broy./Diag. 0.40E+00    0.5     0.00008767      -252.9987340263 -8.44E-04
    10 Broy./Diag. 0.40E+00    0.5     0.00003768      -253.0008328546 -2.10E-03
    11 Broy./Diag. 0.40E+00    0.5     0.00000739      -253.0008994954 -6.66E-05
    12 Broy./Diag. 0.40E+00    0.5     0.00000631      -253.0010267226 -1.27E-04
    13 Broy./Diag. 0.40E+00    0.5     0.00000085      -253.0010752879 -4.86E-05
    14 Broy./Diag. 0.40E+00    0.5     0.00000041      -253.0010714847  3.80E-06
    15 Broy./Diag. 0.40E+00    0.5     0.00000009      -253.0010708665  6.18E-07

  *** SCF run converged in    15 steps ***


  Electronic density on regular grids:       -144.0000000521       -0.0000000521
  Core density on regular grids:              143.9999999918       -0.0000000082
  Total charge density on r-space grids:       -0.0000000603
  Total charge density g-space grids:          -0.0000000603

  Overlap energy of the core charge distribution:               0.00000546263027
  Self energy of the core charge distribution:               -631.12549796049814
  Core Hamiltonian energy:                                    189.02912428626937
  Hartree energy:                                             258.63922874902795
  Exchange-correlation energy:                                -69.54393140393962

  Total energy:                                              -253.00107086651013

 !-----------------------------------------------------------------------------!
                     Mulliken Population Analysis

 #  Atom  Element  Kind  Atomic population                           Net charge
       1     H        1          0.831411                              0.168589
       2     H        1          0.739208                              0.260792
       3     H        1          0.764644                              0.235356
       4     O        2          6.400567                             -0.400567
       5     N        3          5.135843                             -0.135843
       6     C        4          4.125897                             -0.125897
       7     C        4          4.035673                             -0.035673
       8     H        1          0.900351                              0.099649
       9     H        1          0.854103                              0.145897
      10     C        4          4.254171                             -0.254171
      11     H        1          0.715175                              0.284825
      12     O        2          6.367571                             -0.367571
      13     H        1          0.875387                              0.124613
      14     H        1          0.831411                              0.168589
      15     H        1          0.739208                              0.260792
      16     H        1          0.764644                              0.235356
      17     O        2          6.400567                             -0.400567
      18     N        3          5.135843                             -0.135843
      19     C        4          4.125897                             -0.125897
      20     C        4          4.035673                             -0.035673
      21     H        1          0.900350                              0.099650
      22     H        1          0.854103                              0.145897
      23     C        4          4.254171                             -0.254171
      24     H        1          0.715175                              0.284825
      25     O        2          6.367571                             -0.367571
      26     H        1          0.875387                              0.124613
      27     H        1          0.831411                              0.168589
      28     H        1          0.739208                              0.260792
      29     H        1          0.764644                              0.235356
      30     O        2          6.400567                             -0.400567
      31     N        3          5.135843                             -0.135843
      32     C        4          4.125897                             -0.125897
      33     C        4          4.035673                             -0.035673
      34     H        1          0.900350                              0.099650
      35     H        1          0.854103                              0.145897
      36     C        4          4.254171                             -0.254171
      37     H        1          0.715175                              0.284825
      38     O        2          6.367571                             -0.367571
      39     H        1          0.875387                              0.124613
      40     H        1          0.831411                              0.168589
      41     H        1          0.739208                              0.260792
      42     H        1          0.764643                              0.235357
      43     O        2          6.400567                             -0.400567
      44     N        3          5.135843                             -0.135843
      45     C        4          4.125897                             -0.125897
      46     C        4          4.035673                             -0.035673
      47     H        1          0.900350                              0.099650
      48     H        1          0.854103                              0.145897
      49     C        4          4.254171                             -0.254171
      50     H        1          0.715175                              0.284825
      51     O        2          6.367571                             -0.367571
      52     H        1          0.875387                              0.124613
 # Total charge                            144.000000                 -0.000000

 !-----------------------------------------------------------------------------!

 !-----------------------------------------------------------------------------!
                           Hirshfeld Charges

  #Atom  Element  Kind  Ref Charge     Population                    Net charge
      1       H      1       1.000          0.552                         0.448
      2       H      1       1.000          0.454                         0.546
      3       H      1       1.000          0.453                         0.547
      4       O      2       6.000          6.784                        -0.784
      5       N      3       5.000          5.922                        -0.922
      6       C      4       4.000          4.235                        -0.235
      7       C      4       4.000          3.560                         0.440
      8       H      1       1.000          0.554                         0.446
      9       H      1       1.000          0.549                         0.451
     10       C      4       4.000          5.197                        -1.197
     11       H      1       1.000          0.450                         0.550
     12       O      2       6.000          6.737                        -0.737
     13       H      1       1.000          0.554                         0.446
     14       H      1       1.000          0.552                         0.448
     15       H      1       1.000          0.454                         0.546
     16       H      1       1.000          0.453                         0.547
     17       O      2       6.000          6.784                        -0.784
     18       N      3       5.000          5.922                        -0.922
     19       C      4       4.000          4.235                        -0.235
     20       C      4       4.000          3.560                         0.440
     21       H      1       1.000          0.554                         0.446
     22       H      1       1.000          0.549                         0.451
     23       C      4       4.000          5.197                        -1.197
     24       H      1       1.000          0.450                         0.550
     25       O      2       6.000          6.737                        -0.737
     26       H      1       1.000          0.554                         0.446
     27       H      1       1.000          0.552                         0.448
     28       H      1       1.000          0.454                         0.546
     29       H      1       1.000          0.453                         0.547
     30       O      2       6.000          6.784                        -0.784
     31       N      3       5.000          5.922                        -0.922
     32       C      4       4.000          4.235                        -0.235
     33       C      4       4.000          3.560                         0.440
     34       H      1       1.000          0.554                         0.446
     35       H      1       1.000          0.549                         0.451
     36       C      4       4.000          5.197                        -1.197
     37       H      1       1.000          0.450                         0.550
     38       O      2       6.000          6.737                        -0.737
     39       H      1       1.000          0.554                         0.446
     40       H      1       1.000          0.552                         0.448
     41       H      1       1.000          0.454                         0.546
     42       H      1       1.000          0.453                         0.547
     43       O      2       6.000          6.784                        -0.784
     44       N      3       5.000          5.922                        -0.922
     45       C      4       4.000          4.235                        -0.235
     46       C      4       4.000          3.560                         0.440
     47       H      1       1.000          0.554                         0.446
     48       H      1       1.000          0.549                         0.451
     49       C      4       4.000          5.197                        -1.197
     50       H      1       1.000          0.450                         0.550
     51       O      2       6.000          6.737                        -0.737
     52       H      1       1.000          0.554                         0.446

  Total Charge                                                           -0.000
 !-----------------------------------------------------------------------------!

 ENERGY| Total FORCE_EVAL ( QS ) energy [hartree]           -253.001070866510133

 -------------------------------------------------------------------------------
 -                                                                             -
 -                                DBCSR STATISTICS                             -
 -                                                                             -
 -------------------------------------------------------------------------------
 COUNTER                                    TOTAL       BLAS       SMM       ACC
 flops     5 x     5 x    72             21924000     100.0%      0.0%      0.0%     
 flops    13 x     5 x    72             47174400     100.0%      0.0%      0.0%     
 flops     5 x    13 x    72             47174400     100.0%      0.0%      0.0%     
 flops    13 x    13 x    72            109512000     100.0%      0.0%      0.0%     
 flops inhomo. stacks                           0       0.0%      0.0%      0.0%
 flops total                       225.784800E+06     100.0%      0.0%      0.0%
 flops max/rank                    225.784800E+06     100.0%      0.0%      0.0%
 matmuls inhomo. stacks                         0       0.0%      0.0%      0.0%
 matmuls total                              20670     100.0%      0.0%      0.0%
 number of processed stacks                   480     100.0%      0.0%      0.0%
 average stack size                                    43.1       0.0       0.0
 marketing flops                   441.296640E+06
 -------------------------------------------------------------------------------
 # multiplications                             15
 max memory usage/rank               0.000000E+00
 # max total images/rank                        1
 # max 3D layers                                1
 # MPI messages exchanged                       0
 -------------------------------------------------------------------------------
 -                                                                             -
 -                      DBCSR MESSAGE PASSING PERFORMANCE                      -
 -                                                                             -
 -------------------------------------------------------------------------------
 ROUTINE             CALLS      AVE VOLUME [Bytes]
 MP_Bcast                5                     12.
 MP_Allreduce          133                     11.
 MP_Alltoall           327                 710057.
 MP_ISend               60                   3120.
 MP_IRecv               60                   3120.
 -------------------------------------------------------------------------------

 -------------------------------------------------------------------------------
 -                                                                             -
 -                                DBM STATISTICS                               -
 -                                                                             -
 -------------------------------------------------------------------------------
    M  x    N  x    K                                          COUNT     PERCENT
 -------------------------------------------------------------------------------

 -------------------------------------------------------------------------------
 -                                                                             -
 -                                GRID STATISTICS                              -
 -                                                                             -
 -------------------------------------------------------------------------------
 LP    KERNEL             BACKEND                              COUNT     PERCENT
 1     collocate ortho    CPU                                 297280      20.82%
 1     integrate ortho    CPU                                 278700      19.52%
 2     collocate ortho    CPU                                 249472      17.47%
 2     integrate ortho    CPU                                 233880      16.38%
 0     collocate ortho    CPU                                 116608       8.17%
 0     integrate ortho    CPU                                 109320       7.66%
 3     collocate ortho    CPU                                  68096       4.77%
 3     integrate ortho    CPU                                  63840       4.47%
 4     collocate ortho    CPU                                   5504       0.39%
 4     integrate ortho    CPU                                   5160       0.36%
 0     collocate general  CPU                                    104       0.01%
 0     integrate general  CPU                                     52       0.00%
 -------------------------------------------------------------------------------

 MEMORY| Estimated peak process memory [MiB]                                   0

 -------------------------------------------------------------------------------
 ----                             MULTIGRID INFO                            ----
 -------------------------------------------------------------------------------
 count for grid        1:          22264          cutoff [a.u.]          150.00
 count for grid        2:          27608          cutoff [a.u.]           50.00
 count for grid        3:          10828          cutoff [a.u.]           16.67
 count for grid        4:             40          cutoff [a.u.]            5.56
 total gridlevel count  :          60740

 -------------------------------------------------------------------------------
 -                                                                             -
 -                         MESSAGE PASSING PERFORMANCE                         -
 -                                                                             -
 -------------------------------------------------------------------------------

 ROUTINE             CALLS      AVE VOLUME [Bytes]
 MP_Group                4
 MP_Bcast               30                   1810.
 MP_Allreduce          565                     23.
 MP_Sync                19
 MP_comm_split          15
 -------------------------------------------------------------------------------


 -------------------------------------------------------------------------------
 -                                                                             -
 -                           R E F E R E N C E S                               -
 -                                                                             -
 -------------------------------------------------------------------------------
 
 CP2K version 2025.1, the CP2K developers group (2025).
 CP2K is freely available from https://www.cp2k.org/ .
 
 T. D. Kuehne, M. Iannuzzi, M. Del Ben, V. V. Rybkin, P. Seewald, F. Stein, T. 
 Laino, R. Z. Khaliullin, O. Schuett, F. Schiffmann, D. Golze, J. Wilhelm, S. 
 Chulkov, M. H. Bani-Hashemian, V. Weber, U. Borstnik, M. Taillefumier, A. S. 
 Jakobovits, A. Lazzaro, H. Pabst, T. Mueller, R. Schade, M. Guidon, S. 
 Andermatt, N. Holmberg, G. K. Schenter, A. Hehn, A. Bussy, F. Belleflamme, G. 
 Tabacchi, A. Gloess, M. Lass, I. Bethune, C. J. Mundy, C. Plessl, M. Watkins, 
 J. VandeVondele, M. Krack, J. Hutter.
 J. Chem. Phys. 152, 194103 (2020).
 CP2K: An electronic structure and molecular dynamics software package - 
 Quickstep: Efficient and accurate electronic structure calculations.
 https://doi.org/10.1063/5.0007045

 O. Schuett, P. Messmer, J. Hutter, J. VandeVondele.
 Electronic Structure Calculations on Graphics Processing Units, 173-190 (2016).
 GPU-Accelerated Sparse Matrix-Matrix Multiplication for Linear Scaling Density 
 Functional Theory.
 https://doi.org/10.1002/9781118670712.ch8

 J. Hutter, M. Iannuzzi, F. Schiffmann, J. VandeVondele.
 WIREs Comput Mol Sci. 4, 15-25 (2014).
 CP2K: atomistic simulations of condensed matter systems.
 https://doi.org/10.1002/wcms.1159

 U. Borstnik, J. VandeVondele, V. Weber, J. Hutter.
 Parallel Comput. 40, 47-58 (2014).
 Sparse matrix multiplication: The distributed block-compressed sparse row 
 library.
 https://doi.org/10.1016/j.parco.2014.03.012

 J. VandeVondele, M. Krack, F. Mohamed, M. Parrinello, T. Chassaing, J. Hutter.
 Comput. Phys. Commun. 167, 103-128 (2005).
 QUICKSTEP: Fast and accurate density functional calculations using a mixed 
 Gaussian and plane waves approach.
 https://doi.org/10.1016/j.cpc.2004.12.014

 M. Krack.
 Theor. Chem. Acc. 114, 145-152 (2005).
 Pseudopotentials for H to Kr optimized for gradient-corrected 
 exchange-correlation functionals.
 https://doi.org/10.1007/s00214-005-0655-y

 M. Frigo, S. G. Johnson.
 Proc. IEEE 93, 216-231 (2005).
 The design and implementation of FFTW3.
 https://doi.org/10.1109/JPROC.2004.840301

 C. Hartwigsen, S. Goedecker, J. Hutter.
 Phys. Rev. B 58, 3641-3662 (1998).
 Relativistic separable dual-space Gaussian pseudopotentials from H to Rn.
 https://doi.org/10.1103/PhysRevB.58.3641

 G. Lippert, J. Hutter, M. Parrinello.
 Mol. Phys. 92, 477-487 (1997).
 A hybrid Gaussian and plane wave density functional scheme.
 https://doi.org/10.1080/002689797170220

 S. Goedecker, M. Teter, J. Hutter.
 Phys. Rev. B 54, 1703-1710 (1996).
 Separable dual-space Gaussian pseudopotentials.
 https://doi.org/10.1103/PhysRevB.54.1703

 J. P. Perdew, K. Burke, M. Ernzerhof.
 Phys. Rev. Lett. 77, 3865-3868 (1996).
 Generalized gradient approximation made simple.
 https://doi.org/10.1103/PhysRevLett.77.3865


 -------------------------------------------------------------------------------
 -                                                                             -
 -                                T I M I N G                                  -
 -                                                                             -
 -------------------------------------------------------------------------------
 SUBROUTINE                       CALLS  ASD         SELF TIME        TOTAL TIME
                                MAXIMUM       AVERAGE  MAXIMUM  AVERAGE  MAXIMUM
 CP2K                                 1  1.0    0.006    0.006    7.503    7.503
 qs_energies                          1  2.0    0.000    0.000    7.396    7.396
 scf_env_do_scf                       1  3.0    0.000    0.000    7.073    7.073
 scf_env_do_scf_inner_loop           15  4.0    0.001    0.001    7.073    7.073
 qs_ks_update_qs_env                 15  5.0    0.000    0.000    3.299    3.299
 rebuild_ks_matrix                   15  6.0    0.000    0.000    3.295    3.295
 qs_ks_build_kohn_sham_matrix        15  7.0    0.001    0.001    3.295    3.295
 qs_rho_update_rho_low               16  5.0    0.000    0.000    2.642    2.642
 calculate_rho_elec                  16  6.0    0.032    0.032    2.642    2.642
 sum_up_and_integrate                15  8.0    0.000    0.000    2.468    2.468
 integrate_v_rspace                  15  9.0    0.002    0.002    2.464    2.464
 grid_collocate_task_list            16  7.0    2.463    2.463    2.463    2.463
 grid_integrate_task_list            15 10.0    2.385    2.385    2.385    2.385
 qs_scf_new_mos                      15  5.0    0.000    0.000    0.849    0.849
 eigensolver                         15  6.0    0.000    0.000    0.757    0.757
 qs_vxc_create                       15  8.0    0.000    0.000    0.685    0.685
 xc_vxc_pw_create                    15  9.0    0.036    0.036    0.685    0.685
 cp_fm_syevd                         15  7.0    0.000    0.000    0.614    0.614
 cp_fm_syevd_base                    15  8.0    0.600    0.600    0.600    0.600
 fft_wrap_pw1pw2                    275 10.0    0.002    0.002    0.555    0.555
 fft_wrap_pw1pw2_150                182 11.3    0.047    0.047    0.505    0.505
 gspace_mixing                       14  5.0    0.027    0.027    0.443    0.443
 xc_rho_set_and_dset_create          15 10.0    0.015    0.015    0.434    0.434
 broyden_mixing                      14  6.0    0.381    0.381    0.381    0.381
 fft3d_s                            276 12.0    0.334    0.334    0.336    0.336
 xc_pw_derive                        90 11.0    0.000    0.000    0.307    0.307
 xc_functional_eval                  15 11.0    0.000    0.000    0.256    0.256
 pbe_lda_eval                        15 12.0    0.256    0.256    0.256    0.256
 xc_pw_divergence                    15 10.0    0.000    0.000    0.208    0.208
 init_scf_run                         1  3.0    0.000    0.000    0.190    0.190
 scf_env_initial_rho_setup            1  4.0    0.000    0.000    0.185    0.185
 -------------------------------------------------------------------------------

 The number of warnings for this run is : 0
 
 -------------------------------------------------------------------------------
  **** **** ******  **  PROGRAM ENDED AT                 2025-09-02 09:46:44.026
 ***** ** ***  *** **   PROGRAM RAN ON            staff-205-210.eduroam.unibe.ch
 **    ****   ******    PROGRAM RAN BY                                  michelle
 ***** **    ** ** **   PROGRAM PROCESS ID                                 34460
  **** **  *******  **  PROGRAM STOPPED IN /Users/michelle/Desktop/Work/Conferen
                                           ces_Talks/SCrS2025/CP2K_exercises

